% Model:              20230225_JW_4_25.mph
% Version:            COMSOL 5.6.0.401
% Date:               Feb 25 2023, 20:49
% Dimension:          1
% Nodes:              1501
% Expressions:        1
% Description:        点图
% X                       Height
0                         24.25543164272511
1.0E-7                    24.23447319520893
2.0E-7                    24.144446184689794
3.0E-7                    23.997011282197636
4.0E-7                    23.824276576549153
5.0E-7                    23.630420917922415
6.0E-7                    23.39926129538375
7.0E-7                    23.149662550196915
8.0E-7                    22.897535425550068
9.0E-7                    22.64179179013526
1.0E-6                    22.385243693055674
1.1E-6                    22.126145082994558
1.2E-6                    21.865763750858203
1.2999999999999998E-6     21.60692829625608
1.4E-6                    21.34811315488195
1.5E-6                    21.090052350018347
1.6E-6                    20.832668399272467
1.6999999999999998E-6     20.576794287529122
1.8E-6                    20.322309655624558
1.9E-6                    20.069242782043744
2.0E-6                    19.818370634132435
2.1E-6                    19.56942934981794
2.2E-6                    19.32230120357368
2.3E-6                    19.077136488575807
2.4E-6                    18.83353294697666
2.4999999999999998E-6     18.59230225923031
2.5999999999999997E-6     18.352140936706043
2.7E-6                    18.114400603421164
2.8E-6                    17.877976527567725
2.8999999999999998E-6     17.643036820850284
3.0E-6                    17.41128881782775
3.1E-6                    17.180818899365146
3.2E-6                    16.95240695812862
3.2999999999999997E-6     16.726840281104714
3.3999999999999996E-6     16.502796047161553
3.5E-6                    16.281225401365223
3.6E-6                    16.061572814358396
3.6999999999999997E-6     15.84367110929426
3.8E-6                    15.63049910214801
3.9E-6                    15.416961458222644
4.0E-6                    15.202081809493594
4.1E-6                    15.00184754024687
4.2E-6                    14.80719559172261
4.2999999999999995E-6     14.616672361903548
4.4E-6                    14.400300015901639
4.5E-6                    14.193551177935037
4.6E-6                    13.998213461405506
4.7E-6                    13.799193274160462
4.8E-6                    13.609628033600341
4.9E-6                    13.4188250214404
4.9999999999999996E-6     13.228023586822564
5.0999999999999995E-6     13.044560889172974
5.199999999999999E-6      12.858904584668048
5.3E-6                    12.679195298283172
5.4E-6                    12.498700046960447
5.5E-6                    12.322783855686351
5.6E-6                    12.147618125304572
5.7E-6                    11.974696631003987
5.7999999999999995E-6     11.804235055029798
5.899999999999999E-6      11.635175333284904
6.0E-6                    11.46875933345733
6.1E-6                    11.303546611037333
6.2E-6                    11.14099001674472
6.3E-6                    10.981464414913638
6.4E-6                    10.823943281761482
6.5E-6                    10.668578250979127
6.5999999999999995E-6     10.515302717634164
6.699999999999999E-6      10.36406399450968
6.799999999999999E-6      10.214755425233557
6.9E-6                    10.067400258762152
7.0E-6                    9.92204669872149
7.1E-6                    9.778642372289335
7.2E-6                    9.63719234641337
7.2999999999999996E-6     9.497551504680539
7.3999999999999995E-6     9.359908741669106
7.499999999999999E-6      9.224160208684811
7.6E-6                    9.090171386620446
7.699999999999999E-6      8.958288266583976
7.8E-6                    8.82795511831501
7.899999999999999E-6      8.69947514302594
8.0E-6                    8.573670526975809
8.1E-6                    8.455538237117056
8.2E-6                    8.325766561002917
8.3E-6                    8.206356294805701
8.4E-6                    8.086111876023192
8.5E-6                    7.967014143196313
8.599999999999999E-6      7.850467327113372
8.7E-6                    7.734689000951976
8.8E-6                    7.621195073062047
8.9E-6                    7.509678520380824
9.0E-6                    7.399642677832236
9.1E-6                    7.290870935229632
9.2E-6                    7.1839375460387025
9.299999999999999E-6      7.078441550310532
9.4E-6                    6.974394471251918
9.499999999999999E-6      6.871940895369423
9.6E-6                    6.770853571172425
9.7E-6                    6.671254506327642
9.8E-6                    6.573091783637276
9.9E-6                    6.476332319674691
9.999999999999999E-6      6.380854463919589
1.01E-5                   6.286870175799945
1.0199999999999999E-5     6.194225314485236
1.03E-5                   6.102871343155616
1.0399999999999999E-5     6.012755971817356
1.05E-5                   5.924190357814994
1.06E-5                   5.836844406727673
1.07E-5                   5.750733095162761
1.08E-5                   5.6654713613426715
1.0899999999999999E-5     5.582049699044716
1.1E-5                    5.499513613632051
1.1099999999999999E-5     5.417973422190616
1.12E-5                   5.338115961958231
1.13E-5                   5.259032765837987
1.14E-5                   5.181163913569567
1.15E-5                   5.1046455394572146
1.1599999999999999E-5     5.028877079809488
1.17E-5                   4.954507110968234
1.1799999999999999E-5     4.881188843534663
1.19E-5                   4.808609918288471
1.2E-5                    4.73759339496461
1.21E-5                   4.667346469891866
1.22E-5                   4.598015037216716
1.2299999999999999E-5     4.5300226850481415
1.24E-5                   4.4627177021443645
1.2499999999999999E-5     4.396549571644232
1.26E-5                   4.331407375513353
1.2699999999999999E-5     4.266907416444817
1.28E-5                   4.203819786293577
1.29E-5                   4.141389592897638
1.3E-5                    4.079435785647878
1.31E-5                   4.018622884219431
1.3199999999999999E-5     3.9592435166095705
1.33E-5                   3.900731842847767
1.3399999999999999E-5     3.8424241175720963
1.35E-5                   3.7854430121294285
1.3599999999999999E-5     3.7288067560173404
1.37E-5                   3.6733617679695993
1.38E-5                   3.6187605868539023
1.3899999999999999E-5     3.564817009511056
1.4E-5                    3.511776706904549
1.4099999999999999E-5     3.4595899270028774
1.42E-5                   3.408003218859978
1.4299999999999999E-5     3.3573868285315958
1.44E-5                   3.3073543382127366
1.45E-5                   3.2581674279894535
1.4599999999999999E-5     3.2096416676378667
1.47E-5                   3.1618629227327846
1.4799999999999999E-5     3.114829225082814
1.49E-5                   3.0684368417538948
1.4999999999999999E-5     3.0228344443574486
1.51E-5                   2.9778694961752556
1.52E-5                   2.9335203814173267
1.53E-5                   2.8897607204430966
1.5399999999999998E-5     2.8468073939158343
1.55E-5                   2.8044726600659957
1.56E-5                   2.762711049068179
1.57E-5                   2.7215179785530084
1.5799999999999998E-5     2.680970329751364
1.59E-5                   2.6411108839987203
1.6E-5                    2.6020193315612747
1.61E-5                   2.563366542621183
1.62E-5                   2.524767546491327
1.63E-5                   2.4875747752499553
1.64E-5                   2.450382004008583
1.6499999999999998E-5     2.4138383156025953
1.66E-5                   2.378049568122171
1.67E-5                   2.342260820641748
1.68E-5                   2.307671989687399
1.69E-5                   2.2732348651154792
1.7E-5                    2.2392066056499162
1.71E-5                   2.2060748511361425
1.7199999999999998E-5     2.172943096622369
1.73E-5                   2.140733007802609
1.74E-5                   2.1088489803619983
1.75E-5                   2.0771636347230955
1.76E-5                   2.0464900951067913
1.77E-5                   2.0158165554904883
1.78E-5                   1.9861508564779533
1.7899999999999998E-5     1.9571867044958706
1.8E-5                    1.928222552513787
1.81E-5                   1.8992584005317046
1.82E-5                   1.8702942485496223
1.8299999999999998E-5     1.842277639962476
1.84E-5                   1.815464514702547
1.85E-5                   1.7886513894426186
1.8599999999999998E-5     1.7618382641826904
1.87E-5                   1.7350251389227613
1.88E-5                   1.7087890439844118
1.89E-5                   1.6839559599755847
1.8999999999999998E-5     1.659122875966758
1.91E-5                   1.6342897919579304
1.92E-5                   1.609456707949104
1.9299999999999998E-5     1.5848906051293696
1.94E-5                   1.5619331889220727
1.95E-5                   1.538975772714776
1.96E-5                   1.5160183565074798
1.9699999999999998E-5     1.4930609403001833
1.98E-5                   1.4701035240928861
1.99E-5                   1.4488073919254327
1.9999999999999998E-5     1.4275225409430963
2.01E-5                   1.406237689960759
2.02E-5                   1.384952838978423
2.03E-5                   1.3636679879960867
2.0399999999999998E-5     1.3437451497863544
2.05E-5                   1.3240737310297856
2.06E-5                   1.304402312273218
2.07E-5                   1.2847308935166502
2.0799999999999997E-5     1.265059474760082
2.09E-5                   1.24639245121277
2.1E-5                    1.228166024668725
2.1099999999999998E-5     1.2099395981246799
2.12E-5                   1.1917131715806346
2.13E-5                   1.1734867450365896
2.14E-5                   1.1559975095382955
2.1499999999999997E-5     1.1391212427620008
2.16E-5                   1.1222449759857056
2.17E-5                   1.1053687092094109
2.1799999999999998E-5     1.0884924424331162
2.19E-5                   1.072134418929436
2.2E-5                    1.056563818167993
2.21E-5                   1.0409932174065508
2.2199999999999998E-5     1.0254226166451081
2.23E-5                   1.009852015883665
2.24E-5                   0.9945395728313704
2.2499999999999998E-5     0.9800106252910886
2.26E-5                   0.9654816777508064
2.27E-5                   0.9509527302105245
2.28E-5                   0.9364237826702428
2.2899999999999998E-5     0.922021738514596
2.3E-5                    0.90877788219302
2.31E-5                   0.8955340258714444
2.3199999999999998E-5     0.8822901695498688
2.33E-5                   0.8690463132282927
2.34E-5                   0.8558024569067172
2.35E-5                   0.8433116432599408
2.3599999999999998E-5     0.8308607419108165
2.37E-5                   0.8184098405616916
2.38E-5                   0.8059589392125674
2.3899999999999998E-5     0.7937496616496322
2.4E-5                    0.7820646269501592
2.41E-5                   0.7703795922506868
2.42E-5                   0.7586945575512142
2.4299999999999998E-5     0.7472201288150702
2.44E-5                   0.736242971571316
2.45E-5                   0.7252658143275622
2.4599999999999998E-5     0.7142911569160902
2.4699999999999997E-5     0.7037191695566766
2.48E-5                   0.6931471821972626
2.49E-5                   0.6826835142570138
2.4999999999999998E-5     0.6725133697707204
2.51E-5                   0.6623432252844266
2.52E-5                   0.6524683032609723
2.53E-5                   0.6426325406949682
2.5399999999999997E-5     0.6330428091930349
2.55E-5                   0.6235418328424183
2.56E-5                   0.6142703062589041
2.5699999999999998E-5     0.6050555374674246
2.58E-5                   0.5960715193035657
2.59E-5                   0.5871224422199921
2.6E-5                    0.5784014918326601
2.6099999999999997E-5     0.5696968520652118
2.62E-5                   0.5612439284351636
2.63E-5                   0.5528084723243936
2.6399999999999998E-5     0.544609104480826
2.65E-5                   0.5364398542209027
2.66E-5                   0.528462444682009
2.67E-5                   0.5205321026890253
2.6799999999999998E-5     0.5127871365972618
2.69E-5                   0.5051036214077023
2.7E-5                    0.49758685102781514
2.7099999999999998E-5     0.4901394467988589
2.7199999999999997E-5     0.4828290677793509
2.73E-5                   0.47560535965166495
2.74E-5                   0.46851010337622656
2.7499999999999998E-5     0.4615572182831465
2.76E-5                   0.45476507905450003
2.77E-5                   0.4479729398258538
2.7799999999999998E-5     0.4411808005972075
2.7899999999999997E-5     0.4346210040379848
2.8E-5                    0.4282139904850284
2.81E-5                   0.4218069769320721
2.8199999999999998E-5     0.4153999633791158
2.83E-5                   0.4092603494859994
2.84E-5                   0.403216211593629
2.8499999999999998E-5     0.3971720737012586
2.8599999999999997E-5     0.39112793580888827
2.87E-5                   0.38537954973329125
2.88E-5                   0.379675164844832
2.8899999999999998E-5     0.37397077995637273
2.9E-5                    0.36826771987703094
2.91E-5                   0.3628871913662924
2.9199999999999998E-5     0.35750666285555377
2.9299999999999997E-5     0.35212613434481516
2.94E-5                   0.3468065005357515
2.95E-5                   0.3418682288901401
2.9599999999999998E-5     0.3369299572445288
2.97E-5                   0.3319916855989173
2.98E-5                   0.32705341395330595
2.99E-5                   0.3221151423076945
2.9999999999999997E-5     0.3171768706620831
3.01E-5                   0.31223859901647166
3.02E-5                   0.3075201829891413
3.0299999999999998E-5     0.30312491094305
3.04E-5                   0.2987296388969586
3.05E-5                   0.29433436685086733
3.06E-5                   0.28993909480477603
3.07E-5                   0.2855438227586847
3.0799999999999996E-5     0.2811485507125934
3.09E-5                   0.27675327866650196
3.1E-5                    0.27268224594145296
3.11E-5                   0.26876940749817313
3.12E-5                   0.26485656905489297
3.13E-5                   0.26094373061161286
3.14E-5                   0.257030892168333
3.15E-5                   0.25311805372505286
3.1599999999999996E-5     0.24920521528177297
3.17E-5                   0.2452923768384929
3.18E-5                   0.24178419193848438
3.1899999999999996E-5     0.23830216082613898
3.2E-5                    0.2348201297137934
3.21E-5                   0.23133809860144772
3.22E-5                   0.22785606748910237
3.23E-5                   0.22437403637675674
3.24E-5                   0.2208920052644111
3.25E-5                   0.21748877633611136
3.26E-5                   0.21438836983168147
3.2699999999999995E-5     0.21128796332725178
3.28E-5                   0.20818755682282183
3.29E-5                   0.2050871503183919
3.2999999999999996E-5     0.2019867438139622
3.31E-5                   0.19888633730953229
3.32E-5                   0.19578593080510234
3.3299999999999996E-5     0.192847353311642
3.34E-5                   0.19008858057364653
3.35E-5                   0.18732980783565106
3.36E-5                   0.18457103509765574
3.37E-5                   0.18181226235966025
3.38E-5                   0.17905348962166479
3.39E-5                   0.17629471688366946
3.4E-5                    0.173535944145674
3.4099999999999995E-5     0.17100121623439524
3.42E-5                   0.16854484241003057
3.43E-5                   0.16608846858566584
3.4399999999999996E-5     0.16363209476130133
3.45E-5                   0.16117572093693663
3.46E-5                   0.15871934711257193
3.4699999999999996E-5     0.15626297328820743
3.48E-5                   0.15380878764699962
3.49E-5                   0.15162283436301993
3.5E-5                    0.1494368810790404
3.51E-5                   0.14725092779506074
3.52E-5                   0.14506497451108108
3.53E-5                   0.14287902122710155
3.54E-5                   0.14069306794312192
3.5499999999999996E-5     0.13850711465914237
3.56E-5                   0.1364150855661187
3.57E-5                   0.13457031262441763
3.5799999999999996E-5     0.1327255396827167
3.59E-5                   0.1308807667410156
3.6E-5                    0.12903599379931457
3.6099999999999997E-5     0.1271912208576136
3.62E-5                   0.12534644791591254
3.63E-5                   0.12350167497421148
3.64E-5                   0.12165690203251056
3.65E-5                   0.11981212909080949
3.6599999999999995E-5     0.11796735614910853
3.67E-5                   0.11612258320740747
3.68E-5                   0.1142778102657064
3.6899999999999996E-5     0.11243303732400547
3.7E-5                    0.11058826438230437
3.71E-5                   0.10874349144060332
3.7199999999999996E-5     0.1072099022087121
3.73E-5                   0.10574945273040688
3.74E-5                   0.10428900325210166
3.75E-5                   0.10282855377379654
3.76E-5                   0.10136810429549134
3.77E-5                   0.09990765481718612
3.78E-5                   0.098447205338881
3.79E-5                   0.0969867558605758
3.7999999999999995E-5     0.09552630638227068
3.81E-5                   0.09406585690396548
3.82E-5                   0.09260540742566024
3.8299999999999996E-5     0.09114495794735514
3.84E-5                   0.08968450846904992
3.85E-5                   0.08822405899074472
3.8599999999999996E-5     0.0867636095124396
3.87E-5                   0.0854078287670397
3.88E-5                   0.08425156708632968
3.89E-5                   0.08309530540561973
3.9E-5                    0.08193904372490969
3.9099999999999995E-5     0.08078278204419972
3.92E-5                   0.07962652036348969
3.93E-5                   0.07847025868277967
3.9399999999999995E-5     0.07731399700206971
3.95E-5                   0.07615773532135968
3.96E-5                   0.07500147364064964
3.9699999999999996E-5     0.07384521195993968
3.98E-5                   0.07268895027922966
3.99E-5                   0.07153268859851962
3.9999999999999996E-5     0.07037642691780968
4.01E-5                   0.06922016523709965
4.02E-5                   0.06806390355638962
4.03E-5                   0.06711963228946718
4.04E-5                   0.06620468211882158
4.0499999999999995E-5     0.06528973194817607
4.06E-5                   0.06437478177753048
4.07E-5                   0.06345983160688487
4.0799999999999996E-5     0.06254488143623936
4.09E-5                   0.06162993126559376
4.1E-5                    0.06071498109494817
4.1099999999999996E-5     0.05980003092430265
4.12E-5                   0.05888508075365705
4.13E-5                   0.057970130583011474
4.14E-5                   0.05705518041236594
4.15E-5                   0.05614023024172034
4.1599999999999995E-5     0.055225280071074814
4.17E-5                   0.05431032990042923
4.18E-5                   0.05347388001042274
4.1899999999999995E-5     0.0527490523985979
4.2E-5                    0.05202422478677302
4.21E-5                   0.05129939717494813
4.2199999999999996E-5     0.0505745695631233
4.23E-5                   0.04984974195129841
4.24E-5                   0.04912491433947352
4.2499999999999996E-5     0.04840008672764867
4.26E-5                   0.0476752591158238
4.27E-5                   0.046950431503998906
4.28E-5                   0.04622560389217407
4.29E-5                   0.04550077628034918
4.2999999999999995E-5     0.04477594866852434
4.31E-5                   0.044051121056699456
4.32E-5                   0.04332629344487456
4.3299999999999995E-5     0.042601465833049725
4.34E-5                   0.0420202526364492
4.35E-5                   0.04144703003732265
4.3599999999999996E-5     0.04087380743819615
4.37E-5                   0.04030058483906961
4.38E-5                   0.039727362239943075
4.3899999999999996E-5     0.03915413964081656
4.4E-5                    0.03858091704169002
4.41E-5                   0.03800769444256348
4.42E-5                   0.03743447184343698
4.43E-5                   0.03686124924431043
4.4399999999999995E-5     0.036288026645183935
4.45E-5                   0.03571480404605738
4.46E-5                   0.03514158144693084
4.4699999999999996E-5     0.03456835884780434
4.48E-5                   0.0339951362486778
4.49E-5                   0.033479208625722394
4.4999999999999996E-5     0.033024930884245886
4.51E-5                   0.03257065314276935
4.52E-5                   0.03211637540129281
4.5299999999999997E-5     0.0316620976598163
4.54E-5                   0.031207819918339756
4.5499999999999995E-5     0.03075354217686325
4.56E-5                   0.030299264435386705
4.57E-5                   0.029844986693910166
4.5799999999999995E-5     0.029390708952433654
4.59E-5                   0.028936431210957115
4.6E-5                    0.02848215346948058
4.6099999999999996E-5     0.028027875728004067
4.62E-5                   0.027573597986527528
4.63E-5                   0.027119320245050992
4.6399999999999996E-5     0.026666572099133753
4.65E-5                   0.02630733644890409
4.66E-5                   0.025948100798674434
4.67E-5                   0.0255888651484448
4.68E-5                   0.025229629498215132
4.6899999999999995E-5     0.024870393847985502
4.7E-5                    0.024511158197755845
4.71E-5                   0.02415192254752618
4.7199999999999995E-5     0.02379268689729654
4.73E-5                   0.023433451247066882
4.74E-5                   0.023074215596837224
4.7499999999999996E-5     0.022714979946607584
4.76E-5                   0.022355744296377926
4.77E-5                   0.021996508646148265
4.7799999999999996E-5     0.02163727299591863
4.79E-5                   0.02127803734568897
4.8E-5                    0.020959884369922854
4.81E-5                   0.020675277440282358
4.82E-5                   0.020390670510641837
4.8299999999999995E-5     0.020106063581001334
4.84E-5                   0.019821456651360817
4.85E-5                   0.0195368497217203
4.8599999999999995E-5     0.0192522427920798
4.87E-5                   0.01896763586243928
4.88E-5                   0.01868302893279876
4.8899999999999996E-5     0.018398422003158256
4.9E-5                    0.01811381507351774
4.91E-5                   0.01782920814387722
4.9199999999999997E-5     0.01754460121423672
4.93E-5                   0.0172599942845962
4.9399999999999995E-5     0.016975387354955702
4.95E-5                   0.01669582231485741
4.96E-5                   0.01647060549225891
4.9699999999999995E-5     0.016245388669660424
4.98E-5                   0.016020171847061927
4.99E-5                   0.015794955024463427
4.9999999999999996E-5     0.015569738201864945
5.01E-5                   0.015344521379266446
5.02E-5                   0.015119304556667944
5.0299999999999996E-5     0.014894087734069462
5.04E-5                   0.014668870911470963
5.05E-5                   0.014443654088872463
5.06E-5                   0.014218437266273977
5.07E-5                   0.01399322044367548
5.0799999999999995E-5     0.013768003621076996
5.09E-5                   0.013542786798478498
5.1E-5                    0.013317569975879996
5.1099999999999995E-5     0.013131790392810521
5.12E-5                   0.01297025446178972
5.13E-5                   0.012808718530768919
5.1399999999999996E-5     0.01264718259974813
5.15E-5                   0.012485646668727325
5.16E-5                   0.012324110737706525
5.1699999999999996E-5     0.012162574806685734
5.18E-5                   0.012001038875664933
5.1899999999999994E-5     0.011839502944644144
5.2E-5                    0.011677967013623343
5.21E-5                   0.011516431082602542
5.2199999999999995E-5     0.011354895151581751
5.23E-5                   0.011193359220560951
5.24E-5                   0.01103182328954015
5.2499999999999995E-5     0.01087028735851936
5.26E-5                   0.010708751427498558
5.27E-5                   0.010547215496477757
5.2799999999999996E-5     0.010385679565456968
5.29E-5                   0.010224143634436165
5.3E-5                    0.010062607703415364
5.3099999999999996E-5     0.009901071772394573
5.32E-5                   0.009739535841373772
5.3299999999999995E-5     0.009577999910352982
5.34E-5                   0.00941646397933218
5.35E-5                   0.00925492804831138
5.3599999999999995E-5     0.00909339211729059
5.37E-5                   0.008931856186269788
5.38E-5                   0.008770320255248987
5.3899999999999996E-5     0.008608784324228196
5.4E-5                    0.008447248393207395
5.41E-5                   0.008285712462186595
5.4199999999999996E-5     0.008166109186464713
5.43E-5                   0.008065513443447468
5.4399999999999994E-5     0.007964917700430226
5.4499999999999997E-5     0.00786432195741298
5.46E-5                   0.0077637262143957315
5.4699999999999995E-5     0.007663130471378491
5.48E-5                   0.007562534728361244
5.49E-5                   0.007461938985343995
5.4999999999999995E-5     0.007361343242326756
5.51E-5                   0.0072607474993095075
5.52E-5                   0.00716015175629226
5.5299999999999996E-5     0.00705955601327502
5.54E-5                   0.006958960270257773
5.55E-5                   0.006858364527240525
5.5599999999999996E-5     0.006757768784223284
5.57E-5                   0.006657173041206037
5.5799999999999994E-5     0.006556577298188795
5.59E-5                   0.006455981555171549
5.6E-5                    0.006355385812154301
5.6099999999999995E-5     0.0062547900691370594
5.62E-5                   0.0061541943261198126
5.63E-5                   0.006053598583102566
5.6399999999999995E-5     0.005953002840085325
5.65E-5                   0.005852407097068078
5.66E-5                   0.00575181135405083
5.6699999999999996E-5     0.005651215611033589
5.68E-5                   0.005550619868016342
5.69E-5                   0.005450024124999095
5.6999999999999996E-5     0.005349428381981854
5.71E-5                   0.005248832638964605
5.7199999999999994E-5     0.005148236895947365
5.73E-5                   0.005076442421197465
5.74E-5                   0.0050138985038708445
5.7499999999999995E-5     0.004951354586544229
5.76E-5                   0.004888810669217608
5.77E-5                   0.004826266751890987
5.7799999999999995E-5     0.0047637228345643705
5.79E-5                   0.00470117891723775
5.8E-5                    0.004638634999911129
5.8099999999999996E-5     0.004576091082584513
5.82E-5                   0.004513547165257892
5.8299999999999994E-5     0.004451003247931276
5.8399999999999997E-5     0.004388459330604655
5.85E-5                   0.004325915413278035
5.8599999999999995E-5     0.004263371495951418
5.87E-5                   0.004200827578624797
5.88E-5                   0.004138283661298177
5.8899999999999995E-5     0.00407573974397156
5.9E-5                    0.004013195826644939
5.91E-5                   0.003950651909318319
5.9199999999999996E-5     0.0038881079919917015
5.93E-5                   0.0038255640746650806
5.94E-5                   0.00376302015733846
5.9499999999999996E-5     0.003700476240011845
5.96E-5                   0.0036379323226852236
5.9699999999999994E-5     0.0035753884053586074
5.98E-5                   0.0035128444880319866
5.99E-5                   0.003450300570705366
5.9999999999999995E-5     0.003387756653378749
6.01E-5                   0.0033252127360521287
6.02E-5                   0.0032626688187255078
6.0299999999999995E-5     0.0032001249013988917
6.04E-5                   0.003157055063682066
6.05E-5                   0.003118096182960465
6.0599999999999996E-5     0.003079137302238865
6.07E-5                   0.0030401784215172627
6.08E-5                   0.0030012195407956607
6.0899999999999996E-5     0.0029622606600740605
6.1E-5                    0.002923301779352458
6.11E-5                   0.0028843428986308588
6.12E-5                   0.0028453840179092564
6.13E-5                   0.002806425137187654
6.14E-5                   0.002767466256466052
6.149999999999999E-5      0.002728507375744455
6.159999999999999E-5      0.0026895484950228525
6.17E-5                   0.00265058961430125
6.18E-5                   0.0026116307335796477
6.19E-5                   0.002572671852858046
6.2E-5                    0.0025337129721364434
6.209999999999999E-5      0.0024947540914148462
6.22E-5                   0.002455795210693244
6.23E-5                   0.002416836329971642
6.24E-5                   0.002377877449250039
6.25E-5                   0.0023389185685284376
6.26E-5                   0.002299959687806835
6.269999999999999E-5      0.002261000807085238
6.28E-5                   0.0022220419263636357
6.29E-5                   0.0021830830456420333
6.3E-5                    0.0021441241649204305
6.31E-5                   0.002105165284198829
6.319999999999999E-5      0.002066206403477232
6.33E-5                   0.00202724752275563
6.34E-5                   0.0019882886420340275
6.35E-5                   0.0019659056505947426
6.36E-5                   0.001945477732195551
6.37E-5                   0.0019250498137963602
6.379999999999999E-5      0.0019046218953971718
6.39E-5                   0.0018841939769979812
6.4E-5                    0.0018637660585987894
6.41E-5                   0.0018433381401995988
6.42E-5                   0.0018229102218004075
6.429999999999999E-5      0.0018024823034012195
6.44E-5                   0.0017820543850020282
6.45E-5                   0.0017616264666028372
6.46E-5                   0.0017411985482036461
6.47E-5                   0.0017207706298044553
6.48E-5                   0.001700342711405264
6.489999999999999E-5      0.0016799147930060755
6.5E-5                    0.0016594868746068847