% Model:              20230225_JW_4_25.mph
% Version:            COMSOL 5.6.0.401
% Date:               Feb 25 2023, 20:50
% Dimension:          1
% Nodes:              1501
% Expressions:        1
% Description:        点图
% X                       Height
0                         9.312619136250193
1.0E-7                    9.327581058909272
2.0E-7                    9.371205142527204
3.0E-7                    9.410093643041673
4.0E-7                    9.422731569073532
5.0E-7                    9.409427607588073
6.0E-7                    9.369047982637776
7.0E-7                    9.31214751623682
8.0E-7                    9.23689002851183
9.0E-7                    9.148988140552229
1.0E-6                    9.050808256645787
1.1E-6                    8.945863216620317
1.2E-6                    8.836942395968062
1.2999999999999998E-6     8.725084861632327
1.4E-6                    8.611806283730813
1.5E-6                    8.496836260020196
1.6E-6                    8.381600331120955
1.6999999999999998E-6     8.266308466205473
1.8E-6                    8.151538582722463
1.9E-6                    8.037400613581589
2.0E-6                    7.92423125324873
2.1E-6                    7.812196884254667
2.2E-6                    7.70145599890313
2.3E-6                    7.592164180728325
2.4E-6                    7.4842064993483275
2.4999999999999998E-6     7.377894975925411
2.5999999999999997E-6     7.272291550281791
2.7E-6                    7.1687571820010545
2.8E-6                    7.066237910687619
2.8999999999999998E-6     6.964861753709553
3.0E-6                    6.865249409258046
3.1E-6                    6.7664707139411435
3.2E-6                    6.669128575237171
3.2999999999999997E-6     6.573283296662693
3.3999999999999996E-6     6.478289472869489
3.5E-6                    6.38496661493427
3.6E-6                    6.292742793756533
3.6999999999999997E-6     6.20152280953968
3.8E-6                    6.112134862165622
3.9E-6                    6.02340345968276
4.0E-6                    5.935668531319343
4.1E-6                    5.850107085193075
4.2E-6                    5.764560398589529
4.2999999999999995E-6     5.675479434763482
4.4E-6                    5.589777037685988
4.5E-6                    5.513037825519853
4.6E-6                    5.437038835862024
4.7E-6                    5.353450264308342
4.8E-6                    5.280404816153333
4.9E-6                    5.2023518150157075
4.9999999999999996E-6     5.126710604938487
5.0999999999999995E-6     5.052885748086785
5.199999999999999E-6      4.977330355150244
5.3E-6                    4.906043468652857
5.4E-6                    4.833093591824516
5.5E-6                    4.762677629262676
5.6E-6                    4.692524442906689
5.7E-6                    4.6233743817591675
5.7999999999999995E-6     4.555510776801619
5.899999999999999E-6      4.488205878967183
6.0E-6                    4.422318548039768
6.1E-6                    4.356822797822911
6.2E-6                    4.292418735558853
6.3E-6                    4.229160560025292
6.4E-6                    4.166831899362195
6.5E-6                    4.105360956492685
6.5999999999999995E-6     4.044793151346032
6.699999999999999E-6      3.985120723332629
6.799999999999999E-6      3.926291225613834
6.9E-6                    3.8683555935313176
7.0E-6                    3.811199153989282
7.1E-6                    3.754920888251214
7.2E-6                    3.6994307375515967
7.2999999999999996E-6     3.6447289560955904
7.3999999999999995E-6     3.5908610077855085
7.499999999999999E-6      3.537752568169958
7.6E-6                    3.485444138278273
7.699999999999999E-6      3.4339080559411244
7.8E-6                    3.383089396004444
7.899999999999999E-6      3.3330098360597016
8.0E-6                    3.283672312575373
8.1E-6                    3.234403471248513
8.2E-6                    3.184494643670129
8.3E-6                    3.139699305467467
8.4E-6                    3.092718113843189
8.5E-6                    3.0472131522403
8.599999999999999E-6      3.002438565621075
8.7E-6                    2.9581065101747446
8.8E-6                    2.9142543978852165
8.9E-6                    2.871036637594866
9.0E-6                    2.828409850706257
9.1E-6                    2.7863754287125855
9.2E-6                    2.745118454116601
9.299999999999999E-6      2.7043830517371665
9.4E-6                    2.6642171816596933
9.499999999999999E-6      2.6246916757016967
9.6E-6                    2.5857107232693495
9.7E-6                    2.54727873854908
9.8E-6                    2.5094608450208344
9.9E-6                    2.4721826864811565
9.999999999999999E-6      2.4354103280475554
1.01E-5                   2.399227939009966
1.0199999999999999E-5     2.3635804057564522
1.03E-5                   2.3284365637662763
1.0399999999999999E-5     2.293794919744394
1.05E-5                   2.2597408507473133
1.06E-5                   2.226192093509471
1.07E-5                   2.1931154671261464
1.08E-5                   2.1603650951882103
1.0899999999999999E-5     2.1283461712801177
1.1E-5                    2.096672173053704
1.1099999999999999E-5     2.065386023084349
1.12E-5                   2.0347584783529586
1.13E-5                   2.004433560255277
1.14E-5                   1.9745828564303802
1.15E-5                   1.945254356133892
1.1599999999999999E-5     1.9162195703894462
1.17E-5                   1.887742500476003
1.1799999999999999E-5     1.859662671867735
1.19E-5                   1.8318634064601822
1.2E-5                    1.8046944542792729
1.21E-5                   1.7778113398664774
1.22E-5                   1.7512682234864223
1.2299999999999999E-5     1.725276612126238
1.24E-5                   1.6995410701949252
1.2499999999999999E-5     1.6742134333240668
1.26E-5                   1.6493303564124837
1.2699999999999999E-5     1.6246969453699927
1.28E-5                   1.6005282894061157
1.29E-5                   1.5767040182904932
1.3E-5                    1.5531289666695736
1.31E-5                   1.5301307528526107
1.3199999999999999E-5     1.5073944911675254
1.33E-5                   1.4848745740186216
1.3399999999999999E-5     1.462571522342928
1.35E-5                   1.4408123906025019
1.3599999999999999E-5     1.4192176272932988
1.37E-5                   1.3979906908244055
1.38E-5                   1.3771372880965156
1.3899999999999999E-5     1.3565841577633753
1.4E-5                    1.3363380374967948
1.4099999999999999E-5     1.3164218345134993
1.42E-5                   1.2967474806115578
1.4299999999999999E-5     1.2774344488392793
1.44E-5                   1.258363861550366
1.45E-5                   1.2395972147337788
1.4599999999999999E-5     1.2211027319004562
1.47E-5                   1.202883644140775
1.4799999999999999E-5     1.184954256158411
1.49E-5                   1.1672658605521922
1.4999999999999999E-5     1.1498889237885888
1.51E-5                   1.1327511571522066
1.52E-5                   1.1158490477483076
1.53E-5                   1.09917889618814
1.5399999999999998E-5     1.0828084307885817
1.55E-5                   1.066680733259945
1.56E-5                   1.0507720393110953
1.57E-5                   1.0350787573496052
1.5799999999999998E-5     1.019633867423318
1.59E-5                   1.0044530894786918
1.6E-5                    0.9895656868782887
1.61E-5                   0.9748458405223995
1.62E-5                   0.9601465782888904
1.63E-5                   0.9459848199803186
1.64E-5                   0.9318230844587412
1.6499999999999998E-5     0.9179089303322737
1.66E-5                   0.9042827315145175
1.67E-5                   0.8906565524635263
1.68E-5                   0.8774898500273928
1.69E-5                   0.8643812553197556
1.7E-5                    0.8514282494820264
1.71E-5                   0.8388163777426881
1.7199999999999998E-5     0.8262045217459132
1.73E-5                   0.8139464362933856
1.74E-5                   0.8018135148772809
1.75E-5                   0.7897560831838291
1.76E-5                   0.778083034647063
1.77E-5                   0.7664099988437766
1.78E-5                   0.7551208532856281
1.7899999999999998E-5     0.7440989325448061
1.8E-5                    0.7330770222475778
1.81E-5                   0.7220551216257813
1.82E-5                   0.7110332299110808
1.8299999999999998E-5     0.700373034703705
1.84E-5                   0.6901722324880621
1.85E-5                   0.6799714397738437
1.8599999999999998E-5     0.6697706559526356
1.87E-5                   0.659569880415898
1.88E-5                   0.6495913461074003
1.89E-5                   0.6401531655437462
1.8999999999999998E-5     0.6307149923780447
1.91E-5                   0.6212768261273681
1.92E-5                   0.6118386663087046
1.9299999999999998E-5     0.6024996052157119
1.94E-5                   0.5937576303168853
1.95E-5                   0.5850156611251375
1.96E-5                   0.5762736972580296
1.9699999999999998E-5     0.5675317383330658
1.98E-5                   0.5587897839676962
1.99E-5                   0.5507020188524828
1.9999999999999998E-5     0.5426187008659046
2.01E-5                   0.5345353873717698
2.02E-5                   0.5264520780672631
2.03E-5                   0.5183687726495302
2.0399999999999998E-5     0.5107906754742778
2.05E-5                   0.503305839755873
2.06E-5                   0.4958210075100541
2.07E-5                   0.4883361784955125
2.0799999999999997E-5     0.48085135247091354
2.09E-5                   0.47375243556664065
2.1E-5                    0.4668228066809487
2.1099999999999998E-5     0.45989318053705586
2.12E-5                   0.45296355694520485
2.13E-5                   0.44603393571562155
2.14E-5                   0.4393913711639169
2.1499999999999997E-5     0.4329874926434713
2.16E-5                   0.4265836164923483
2.17E-5                   0.42017974255884527
2.1799999999999998E-5     0.4137758706912462
2.19E-5                   0.4075537982768928
2.2E-5                    0.4016079521297334
2.21E-5                   0.3956621075484941
2.2199999999999998E-5     0.38971626441329793
2.23E-5                   0.3837704226042591
2.24E-5                   0.37794149264567856
2.2499999999999998E-5     0.37246738208561636
2.26E-5                   0.3669932732415346
2.27E-5                   0.361519166019436
2.28E-5                   0.35604506032531624
2.2899999999999998E-5     0.35060759996624913
2.3E-5                    0.3455045724377103
2.31E-5                   0.3404015457027685
2.3199999999999998E-5     0.3352985196839931
2.33E-5                   0.3301954943039505
2.34E-5                   0.32509246948520454
2.35E-5                   0.3203377021549771
2.3599999999999998E-5     0.3156013936687725
2.37E-5                   0.31086508587754297
2.38E-5                   0.30612877872418265
2.3899999999999998E-5     0.30150637388156337
2.4E-5                    0.2971310983294853
2.41E-5                   0.29275582336985795
2.42E-5                   0.28838054895173654
2.4299999999999998E-5     0.2840575330151923
2.44E-5                   0.27985790659778165
2.45E-5                   0.2756582810634845
2.4599999999999998E-5     0.2714598277060757
2.4699999999999997E-5     0.267450052537844
2.48E-5                   0.26344027766036393
2.49E-5                   0.2594686984387987
2.4999999999999998E-5     0.2556006213290528
2.51E-5                   0.2517325446820359
2.52E-5                   0.24796617633016096
2.53E-5                   0.244213299470065
2.5399999999999997E-5     0.24057966286270854
2.55E-5                   0.23698904190207337
2.56E-5                   0.23346417932464317
2.5699999999999998E-5     0.22995558356669718
2.58E-5                   0.2265352278714996
2.59E-5                   0.22312823382905356
2.6E-5                    0.21982139625291694
2.6099999999999997E-5     0.21652166167251732
2.62E-5                   0.21330455819310107
2.63E-5                   0.21009437626956493
2.6399999999999998E-5     0.20697774188302326
2.65E-5                   0.2038728062054403
2.66E-5                   0.20084238751803488
2.67E-5                   0.19782941017234962
2.6799999999999998E-5     0.19488512436194413
2.69E-5                   0.1919643436629949
2.7E-5                    0.18910734339038798
2.7099999999999998E-5     0.1862767340759069
2.7199999999999997E-5     0.1834982567376231
2.73E-5                   0.18075294996415384
2.74E-5                   0.17805680413672945
2.7499999999999998E-5     0.17541439769202066
2.76E-5                   0.17283266629160082
2.77E-5                   0.17025093503263383
2.7799999999999998E-5     0.16766920390526485
2.7899999999999997E-5     0.16517606503698015
2.8E-5                    0.16274118236190968
2.81E-5                   0.16030629979224226
2.8199999999999998E-5     0.1578714173197111
2.83E-5                   0.15553800735511214
2.84E-5                   0.15324082859291277
2.8499999999999998E-5     0.1509436499425046
2.8599999999999997E-5     0.14864647139692505
2.87E-5                   0.14646171256893592
2.88E-5                   0.14429367931428466
2.8899999999999998E-5     0.14212564612691506
2.9E-5                    0.13995811721319845
2.91E-5                   0.13791334141414455
2.9199999999999998E-5     0.1358685656973367
2.9299999999999997E-5     0.1338237900578603
2.94E-5                   0.13180212741438865
2.95E-5                   0.12992521296802031
2.9599999999999998E-5     0.1280482985742719
2.97E-5                   0.12617138422935884
2.98E-5                   0.12429446992949673
2.99E-5                   0.12241755567090103
2.9999999999999997E-5     0.12054064144978721
3.01E-5                   0.11866372726237068
3.02E-5                   0.11687044748170711
3.0299999999999998E-5     0.11520009362727872
3.04E-5                   0.11352973982373436
3.05E-5                   0.11185938606840021
3.06E-5                   0.11018903235860221
3.07E-5                   0.1085186786916664
3.0799999999999996E-5     0.10684832506491893
3.09E-5                   0.1051779714756856
3.1E-5                    0.10363086664217831
3.11E-5                   0.10214389409908048
3.12E-5                   0.10065692158509487
3.13E-5                   0.0991699490983387
3.14E-5                   0.09768297663692913
3.15E-5                   0.09619600419898298
3.1599999999999996E-5     0.09470903178261751
3.17E-5                   0.09322205938594959
3.18E-5                   0.09188861024068498
3.1899999999999996E-5     0.09056508371509125
3.2E-5                    0.08924155721099215
3.21E-5                   0.08791803072705803
3.22E-5                   0.08659450426195929
3.23E-5                   0.08527097781436593
3.24E-5                   0.08394745138294837
3.25E-5                   0.08265396208470406
3.26E-5                   0.08147589997070308
3.2699999999999995E-5     0.0802978378728301
3.28E-5                   0.07911977579014873
3.29E-5                   0.07794171372172275
3.2999999999999996E-5     0.07676365166661595
3.31E-5                   0.0755855896238919
3.32E-5                   0.07440752759261433
3.3299999999999996E-5     0.07329079084420467
3.34E-5                   0.07224219130594935
3.35E-5                   0.07119359177806825
3.36E-5                   0.07014499225989979
3.37E-5                   0.06909639275078215
3.38E-5                   0.06804779325005375
3.39E-5                   0.06699919375705296
3.4E-5                    0.06595059427111799
3.4099999999999995E-5     0.06498730071278785
3.42E-5                   0.06405384077923726
3.43E-5                   0.06312038085322068
3.4399999999999996E-5     0.06218692093427276
3.45E-5                   0.06125346102192793
3.46E-5                   0.060320001115720875
3.4699999999999996E-5     0.05938654121518618
3.48E-5                   0.05845391279843443
3.49E-5                   0.05762320887984192
3.5E-5                    0.056792504966809175
3.51E-5                   0.055961801059006916
3.52E-5                   0.05513109715610601
3.53E-5                   0.05430039325777733
3.54E-5                   0.05346968936369156
3.5499999999999996E-5     0.05263898547351959
3.56E-5                   0.05184393441359312
3.57E-5                   0.05114273969515305
3.5799999999999996E-5     0.050441544978578445
3.59E-5                   0.049740350263671816
3.6E-5                    0.04903915555023587
3.6099999999999997E-5     0.04833796083807328
3.62E-5                   0.04763676612698659
3.63E-5                   0.04693557141677848
3.64E-5                   0.046234376707251626
3.65E-5                   0.04553318199820858
3.6599999999999995E-5     0.044831987289452035
3.67E-5                   0.044130792580784575
3.68E-5                   0.04342959787200885
3.6899999999999996E-5     0.04272840316292756
3.7E-5                    0.042027208453343234
3.71E-5                   0.04132601374305855
3.7199999999999996E-5     0.040743223610209385
3.73E-5                   0.040188262963347175
3.74E-5                   0.03963330232007842
3.75E-5                   0.039078341680305106
3.76E-5                   0.03852338104392912
3.77E-5                   0.03796842041085245
3.78E-5                   0.037413459780977085
3.79E-5                   0.03685849915420492
3.7999999999999995E-5     0.03630353853043797
3.81E-5                   0.03574857790957812
3.82E-5                   0.03519361729152736
3.8299999999999996E-5     0.03463865667618769
3.84E-5                   0.03408369606346099
3.85E-5                   0.03352873545324924
3.8599999999999996E-5     0.032973774845454454
3.87E-5                   0.0324585828533033
3.88E-5                   0.032019197612855974
3.89E-5                   0.031579812372856696
3.9E-5                    0.03114042713325681
3.9099999999999995E-5     0.030701041894007734
3.92E-5                   0.0302616566550608
3.93E-5                   0.02982227141636742
3.9399999999999995E-5     0.02938288617787901
3.95E-5                   0.02894350093954689
3.96E-5                   0.028504115701322465
3.9699999999999996E-5     0.028064730463157155
3.98E-5                   0.027625345225002287
3.99E-5                   0.027185959986809276
3.9999999999999996E-5     0.02674657474852952
4.01E-5                   0.02630718951011434
4.02E-5                   0.025867804271515162
4.03E-5                   0.025508824284349984
4.04E-5                   0.025160965414539913
4.0499999999999995E-5     0.02481310654544925
4.06E-5                   0.024465247677053843
4.07E-5                   0.024117388809329614
4.0799999999999996E-5     0.023769529942252496
4.09E-5                   0.023421671075798334
4.1E-5                    0.02307381220994306
4.1099999999999996E-5     0.0227259533446626
4.12E-5                   0.022378094479932806
4.13E-5                   0.0220302356157296
4.14E-5                   0.021682376752028918
4.15E-5                   0.021334517888806595
4.1599999999999995E-5     0.0209866590260386
4.17E-5                   0.020638800163700777
4.18E-5                   0.02032091765327527
4.1899999999999995E-5     0.020045659559455826
4.2E-5                    0.01977040146580505
4.21E-5                   0.01949514337231099
4.2199999999999996E-5     0.019219885278961686
4.23E-5                   0.018944627185745126
4.24E-5                   0.018669369092649338
4.2499999999999996E-5     0.018394110999662372
4.26E-5                   0.01811885290677221
4.27E-5                   0.01784359481396688
4.28E-5                   0.017568336721234437
4.29E-5                   0.017293078628562848
4.2999999999999995E-5     0.017017820535940174
4.31E-5                   0.01674256244335441
4.32E-5                   0.01646730435079358
4.3299999999999995E-5     0.01619204625824574
4.34E-5                   0.01597096996024451
4.35E-5                   0.015752908296416648
4.3599999999999996E-5     0.015534846632678118
4.37E-5                   0.015316784969022964
4.38E-5                   0.015098723305445275
4.3899999999999996E-5     0.014880661641939137
4.4E-5                    0.014662599978498595
4.41E-5                   0.014444538315117744
4.42E-5                   0.014226476651790665
4.43E-5                   0.014008414988511415
4.4399999999999995E-5     0.013790353325274087
4.45E-5                   0.013572291662072732
4.46E-5                   0.013354229998901434
4.4699999999999996E-5     0.013136168335754286
4.48E-5                   0.012918106672625333
4.49E-5                   0.012722011123741047
4.4999999999999996E-5     0.012549551300581743
4.51E-5                   0.01237709147749264
4.52E-5                   0.012204631654470803
4.5299999999999997E-5     0.012032171831513297
4.54E-5                   0.011859712008617143
4.5499999999999995E-5     0.011687252185779422
4.56E-5                   0.011514792362997158
4.57E-5                   0.011342332540267416
4.5799999999999995E-5     0.011169872717587258
4.59E-5                   0.010997412894953708
4.6E-5                    0.010824953072363837
4.6099999999999996E-5     0.0106524932498147
4.62E-5                   0.010480033427303328
4.63E-5                   0.010307573604826785
4.6399999999999996E-5     0.010135690015207824
4.65E-5                   0.009999034672243624
4.66E-5                   0.009862379329270308
4.67E-5                   0.009725723986286428
4.68E-5                   0.009589068643290507
4.6899999999999995E-5     0.009452413300281105
4.7E-5                    0.009315757957256747
4.71E-5                   0.009179102614215976
4.7199999999999995E-5     0.009042447271157352
4.73E-5                   0.008905791928079393
4.74E-5                   0.008769136584980651
4.7499999999999996E-5     0.00863248124185967
4.76E-5                   0.008495825898714985
4.77E-5                   0.008359170555545135
4.7799999999999996E-5     0.00822251521234868
4.79E-5                   0.008085859869124136
4.8E-5                    0.007964928585497197
4.81E-5                   0.007856836778290343
4.82E-5                   0.007748744971107787
4.8299999999999995E-5     0.007640653163948822
4.84E-5                   0.0075325613568127114
4.85E-5                   0.007424469549698731
4.8599999999999995E-5     0.007316377742606168
4.87E-5                   0.007208285935534281
4.88E-5                   0.00710019412848235
4.8899999999999996E-5     0.006992102321449662
4.9E-5                    0.006884010514435474
4.91E-5                   0.006775918707439067
4.9199999999999997E-5     0.006667826900459725
4.93E-5                   0.006559735093496708
4.9399999999999995E-5     0.006451643286549305
4.95E-5                   0.006345460398445752
4.96E-5                   0.006259854386301634
4.9699999999999995E-5     0.006174248374146961
4.98E-5                   0.00608864236198136
4.99E-5                   0.00600303634980448
4.9999999999999996E-5     0.005917430337615966
5.01E-5                   0.0058318243254154465
5.02E-5                   0.00574621831320257
5.0299999999999996E-5     0.005660612300976982
5.04E-5                   0.005575006288738311
5.05E-5                   0.005489400276486205
5.06E-5                   0.005403794264220309
5.07E-5                   0.005318188251940252
5.0799999999999995E-5     0.005232582239645687
5.09E-5                   0.005146976227336245
5.1E-5                    0.005061370215011569
5.1099999999999995E-5     0.004990749035102296
5.12E-5                   0.004929339632368584
5.13E-5                   0.004867930229622666
5.1399999999999996E-5     0.004806520826864414
5.15E-5                   0.004745111424093689
5.16E-5                   0.004683702021310359
5.1699999999999996E-5     0.0046222926185143015
5.18E-5                   0.00456088321570537
5.1899999999999994E-5     0.0044994738128834415
5.2E-5                    0.004438064410048376
5.21E-5                   0.0043766550072000445
5.2199999999999995E-5     0.0043152456043383195
5.23E-5                   0.004253836201463059
5.24E-5                   0.004192426798574136
5.2499999999999995E-5     0.004131017395671418
5.26E-5                   0.004069607992754768
5.27E-5                   0.004008198589824057
5.2799999999999996E-5     0.003946789186879155
5.29E-5                   0.0038853797839199225
5.3E-5                    0.00382397038094623
5.3099999999999996E-5     0.0037625609779579497
5.32E-5                   0.00370115157495494
5.3299999999999995E-5     0.0036397421719370766
5.34E-5                   0.00357833276890422
5.35E-5                   0.0035169233658562398
5.3599999999999995E-5     0.003455513962793009
5.37E-5                   0.003394104559714385
5.38E-5                   0.0033326951566202416
5.3899999999999996E-5     0.003271285753510448
5.4E-5                    0.0032098763503848643
5.41E-5                   0.003148466947243362
5.4199999999999996E-5     0.003103026155850573
5.43E-5                   0.0030648237305575324
5.4399999999999994E-5     0.0030266213052737093
5.4499999999999997E-5     0.0029884188799990663
5.46E-5                   0.0029502164547335736
5.4699999999999995E-5     0.0029120140294772016
5.48E-5                   0.002873811604229915
5.49E-5                   0.0028356091789916806
5.4999999999999995E-5     0.002797406753762473
5.51E-5                   0.0027592043285422523
5.52E-5                   0.002721001903330991
5.5299999999999996E-5     0.0026827994781286582
5.54E-5                   0.0026445970529352172
5.55E-5                   0.0026063946277506385
5.5599999999999996E-5     0.0025681922025748934
5.57E-5                   0.002529989777407944
5.5799999999999994E-5     0.0024917873522497624
5.59E-5                   0.0024535849271003136
5.6E-5                    0.0024153825019595674
5.6099999999999995E-5     0.002377180076827493
5.62E-5                   0.002338977651704055
5.63E-5                   0.002300775226589223
5.6399999999999995E-5     0.0022625728014829686
5.65E-5                   0.002224370376385253
5.66E-5                   0.0021861679512960486
5.6699999999999996E-5     0.0021479655262153247
5.68E-5                   0.0021097631011430438
5.69E-5                   0.002071560676079177
5.6999999999999996E-5     0.002033358251023695
5.71E-5                   0.001995155825976561
5.7199999999999994E-5     0.001956953400937748
5.73E-5                   0.0019296573219665725
5.74E-5                   0.001905864206111673
5.7499999999999995E-5     0.0018820710902533418
5.76E-5                   0.0018582779743915683
5.77E-5                   0.001834484858526345
5.7799999999999995E-5     0.0018106917426576677
5.79E-5                   0.001786898626785524
5.8E-5                    0.0017631055109099086
5.8099999999999996E-5     0.0017393123950308152
5.82E-5                   0.0017155192791482332
5.8299999999999994E-5     0.0016917261632621572
5.8399999999999997E-5     0.0016679330473725767
5.85E-5                   0.0016441399314794862
5.8599999999999995E-5     0.0016203468155828794
5.87E-5                   0.001596553699682745
5.88E-5                   0.0015727605837790766
5.8899999999999995E-5     0.001548967467871869
5.9E-5                    0.0015251743519611107
5.91E-5                   0.0015013812360467958
5.9199999999999996E-5     0.001477588120128918
5.93E-5                   0.001453795004207467
5.94E-5                   0.0014300018882824359
5.9499999999999996E-5     0.001406208772353819
5.96E-5                   0.0013824156564216053
5.9699999999999994E-5     0.0013586225404857908
5.98E-5                   0.0013348294245463634
5.99E-5                   0.0013110363086033183
5.9999999999999995E-5     0.0012872431926566486
6.01E-5                   0.0012634500767063437
6.02E-5                   0.0012396569607523973
6.0299999999999995E-5     0.001215863844794804
6.04E-5                   0.0011995049867991306
6.05E-5                   0.0011847154925640078
6.0599999999999996E-5     0.0011699259983304596
6.07E-5                   0.001155136504098482
6.08E-5                   0.0011403470098680743
6.0899999999999996E-5     0.0011255575156392356
6.1E-5                    0.001110768021411962
6.11E-5                   0.001095978527186254
6.12E-5                   0.0010811890329621074
6.13E-5                   0.001066399538739521
6.14E-5                   0.001051610044518494
6.149999999999999E-5      0.0010368205502990255
6.159999999999999E-5      0.0010220310560811103
6.17E-5                   0.0010072415618647477
6.18E-5                   9.924520676499369E-4
6.19E-5                   9.776625734366755E-4
6.2E-5                    9.628730792249614E-4
6.209999999999999E-5      9.480835850147955E-4
6.22E-5                   9.33294090806171E-4
6.23E-5                   9.18504596599089E-4
6.24E-5                   9.037151023935468E-4
6.25E-5                   8.889256081895433E-4
6.26E-5                   8.741361139870759E-4
6.269999999999999E-5      8.593466197861451E-4
6.28E-5                   8.445571255867449E-4
6.29E-5                   8.297676313888759E-4
6.3E-5                    8.149781371925358E-4
6.31E-5                   8.00188642997723E-4
6.319999999999999E-5      7.853991488044373E-4
6.33E-5                   7.706096546126731E-4
6.34E-5                   7.558201604224304E-4
6.35E-5                   7.473135600499984E-4
6.36E-5                   7.395480068757394E-4
6.37E-5                   7.31782453701133E-4
6.379999999999999E-5      7.240169005261802E-4
6.39E-5                   7.162513473508787E-4
6.4E-5                    7.084857941752292E-4
6.41E-5                   7.007202409992313E-4
6.42E-5                   6.929546878228851E-4
6.429999999999999E-5      6.851891346461909E-4
6.44E-5                   6.774235814691469E-4
6.45E-5                   6.696580282917533E-4
6.46E-5                   6.618924751140103E-4
6.47E-5                   6.541269219359172E-4