% Model:              20230225_JW_4_25.mph
% Version:            COMSOL 5.6.0.401
% Date:               Feb 25 2023, 20:50
% Dimension:          1
% Nodes:              1501
% Expressions:        1
% Description:        点图
% X                       Height
0                         6.270246273176691
1.0E-7                    6.280625726478963
2.0E-7                    6.330734258684134
3.0E-7                    6.407125921889475
4.0E-7                    6.464227044776434
5.0E-7                    6.483538634007761
6.0E-7                    6.4783274116951315
7.0E-7                    6.455092556460301
8.0E-7                    6.416211346010097
9.0E-7                    6.362858057078482
1.0E-6                    6.29981121533695
1.1E-6                    6.2297479566285245
1.2E-6                    6.154541104120988
1.2999999999999998E-6     6.077105761421069
1.4E-6                    5.9976821586638165
1.5E-6                    5.91668234131319
1.6E-6                    5.83528538848245
1.6999999999999998E-6     5.753286465619472
1.8E-6                    5.671467350533031
1.9E-6                    5.590132152775198
2.0E-6                    5.5093920696517715
2.1E-6                    5.4294929012062125
2.2E-6                    5.350430252565628
2.3E-6                    5.272671047157146
2.4E-6                    5.1958642526553716
2.4999999999999998E-6     5.120345188761984
2.5999999999999997E-6     5.045330048039752
2.7E-6                    4.971960444633125
2.8E-6                    4.89939788050106
2.8999999999999998E-6     4.82774401985534
3.0E-6                    4.757374967327343
3.1E-6                    4.687623776370153
3.2E-6                    4.618944492850455
3.2999999999999997E-6     4.551362857004344
3.3999999999999996E-6     4.484426834740382
3.5E-6                    4.418884882543617
3.6E-6                    4.354008171937397
3.6999999999999997E-6     4.289738739184991
3.8E-6                    4.227223307367632
3.9E-6                    4.1650261973744875
4.0E-6                    4.1031923881995205
4.1E-6                    4.0434850158094084
4.2E-6                    3.984242594490502
4.2999999999999995E-6     3.923835990794799
4.4E-6                    3.8606382458144286
4.5E-6                    3.802705383029917
4.6E-6                    3.752973628850426
4.7E-6                    3.6970358669398493
4.8E-6                    3.645562521957265
4.9E-6                    3.5898071506819114
4.9999999999999996E-6     3.538409542662999
5.0999999999999995E-6     3.4864633145426027
5.199999999999999E-6      3.434882594600767
5.3E-6                    3.383948743841771
5.4E-6                    3.3339903098536205
5.5E-6                    3.2845001400379834
5.6E-6                    3.2360911837973467
5.7E-6                    3.187777223936751
5.7999999999999995E-6     3.1406577023291375
5.899999999999999E-6      3.093970823110306
6.0E-6                    3.048095139382677
6.1E-6                    3.002813876611715
6.2E-6                    2.958147608577222
6.3E-6                    2.9142797269805483
6.4E-6                    2.870979373376302
6.5E-6                    2.828361148813721
6.5999999999999995E-6     2.786387948609768
6.699999999999999E-6      2.7450219043288757
6.799999999999999E-6      2.704293608757606
6.9E-6                    2.6641275274030742
7.0E-6                    2.624574467487253
7.1E-6                    2.585621608280748
7.2E-6                    2.5471995434357484
7.2999999999999996E-6     2.5093833981577673
7.3999999999999995E-6     2.4720874391486616
7.499999999999999E-6      2.4353781112105723
7.6E-6                    2.399218230754926
7.699999999999999E-6      2.363559325427857
7.8E-6                    2.328488532413802
7.899999999999999E-6      2.2938297305839224
8.0E-6                    2.259791476297498
8.1E-6                    2.2261056208664525
8.2E-6                    2.1917015380314924
8.3E-6                    2.1589998248139053
8.4E-6                    2.1272399577278276
8.5E-6                    2.0967366817155146
8.599999999999999E-6      2.0652647881487494
8.7E-6                    2.0347534734790593
8.8E-6                    2.004758916049635
8.9E-6                    1.9748914448639625
9.0E-6                    1.9454576437639606
9.1E-6                    1.9165850807704765
9.2E-6                    1.888043317476794
9.299999999999999E-6      1.8599253525129729
9.4E-6                    1.8322826766254479
9.499999999999999E-6      1.8050069085102112
9.6E-6                    1.7781516458316902
9.7E-6                    1.751653267993382
9.8E-6                    1.7256131643035981
9.9E-6                    1.6998985995993026
9.999999999999999E-6      1.6745832882704001
1.01E-5                   1.6496290037352845
1.0199999999999999E-5     1.6250856426065932
1.03E-5                   1.600869283461012
1.0399999999999999E-5     1.5770079174476384
1.05E-5                   1.5535577771296267
1.06E-5                   1.5304442227210608
1.07E-5                   1.5076678542338569
1.08E-5                   1.4851233224522673
1.0899999999999999E-5     1.4630757544965578
1.1E-5                    1.4412673838607333
1.1099999999999999E-5     1.4197279763600787
1.12E-5                   1.3986436897078502
1.13E-5                   1.377768267798039
1.14E-5                   1.357219991548183
1.15E-5                   1.337036721312266
1.1599999999999999E-5     1.3170563522151197
1.17E-5                   1.297454656255479
1.1799999999999999E-5     1.2781313316597496
1.19E-5                   1.2590043687639836
1.2E-5                    1.2403113090552516
1.21E-5                   1.2218138179389155
1.22E-5                   1.2035489380147768
1.2299999999999999E-5     1.1856718287684227
1.24E-5                   1.1679691997935902
1.2499999999999999E-5     1.1505409527749442
1.26E-5                   1.1334273248075342
1.2699999999999999E-5     1.1164873010249892
1.28E-5                   1.0998602803479314
1.29E-5                   1.083474189889084
1.3E-5                    1.067261936515774
1.31E-5                   1.0514208786073123
1.3199999999999999E-5     1.0358069627927642
1.33E-5                   1.0203862975825184
1.3399999999999999E-5     1.0050754757438454
1.35E-5                   0.9899764242998584
1.3599999999999999E-5     0.975192604211591
1.37E-5                   0.9605393231723608
1.38E-5                   0.9462743769594621
1.3899999999999999E-5     0.9320944068031869
1.4E-5                    0.9182015407350715
1.4099999999999999E-5     0.9044880521093529
1.42E-5                   0.8909894043721284
1.4299999999999999E-5     0.8776908849317328
1.44E-5                   0.8645834826895508
1.45E-5                   0.8516834379758943
1.4599999999999999E-5     0.8389709390165901
1.47E-5                   0.826445179108205
1.4799999999999999E-5     0.814124546757443
1.49E-5                   0.8019564134360405
1.4999999999999999E-5     0.7900207138413995
1.51E-5                   0.778240010909635
1.52E-5                   0.7666184281743906
1.53E-5                   0.7551640209869882
1.5399999999999998E-5     0.7439135553624876
1.55E-5                   0.7328264497476856
1.56E-5                   0.7218927306566333
1.57E-5                   0.7111100749514238
1.5799999999999998E-5     0.7004919791855286
1.59E-5                   0.6900603243989917
1.6E-5                    0.6798296723589279
1.61E-5                   0.6697134266704402
1.62E-5                   0.6596113610551968
1.63E-5                   0.6498795379995079
1.64E-5                   0.6401477318159629
1.6499999999999998E-5     0.6305864547699178
1.66E-5                   0.6212235154547078
1.67E-5                   0.611860590921863
1.68E-5                   0.6028120106361171
1.69E-5                   0.5938031848880215
1.7E-5                    0.5849019659141973
1.71E-5                   0.5762366772915188
1.7199999999999998E-5     0.5675714002976181
1.73E-5                   0.5591486537657047
1.74E-5                   0.5508117151851168
1.75E-5                   0.5425267032193759
1.76E-5                   0.5345060904053216
1.77E-5                   0.5264854869395084
1.78E-5                   0.5187288045380237
1.7899999999999998E-5     0.5111558370485298
1.8E-5                    0.5035828774236467
1.81E-5                   0.4960099251184007
1.82E-5                   0.48843697958772847
1.8299999999999998E-5     0.4811126269457396
1.84E-5                   0.4741040133583249
1.85E-5                   0.4670954067166011
1.8599999999999998E-5     0.46008680658905166
1.87E-5                   0.4530782125440957
1.88E-5                   0.44622265052395027
1.89E-5                   0.43973916764808024
1.8999999999999998E-5     0.43325569033018413
1.91E-5                   0.42677221822805433
1.92E-5                   0.42028875099944013
1.9299999999999998E-5     0.4138732135977244
1.94E-5                   0.407866962243041
1.95E-5                   0.4018607150699004
1.96E-5                   0.3958544718068624
1.9699999999999998E-5     0.3898482321824575
1.98E-5                   0.3838419959251881
1.99E-5                   0.3782854407819325
1.9999999999999998E-5     0.3727319428133554
2.01E-5                   0.36717844820479184
2.02E-5                   0.3616249567415755
2.03E-5                   0.35607146820901986
2.0399999999999998E-5     0.3508668012483668
2.05E-5                   0.3457265269008804
2.06E-5                   0.34058625512749496
2.07E-5                   0.33544598575741313
2.0799999999999997E-5     0.33030571861982394
2.09E-5                   0.3254284918178449
2.1E-5                    0.32066665387010984
2.1099999999999998E-5     0.31590481795418224
2.12E-5                   0.31114298393506923
2.13E-5                   0.306381151677769
2.14E-5                   0.30181790676998577
2.1499999999999997E-5     0.2974197861513311
2.16E-5                   0.29302166728357987
2.17E-5                   0.28862355005984675
2.1799999999999998E-5     0.284225434373239
2.19E-5                   0.2799523923866228
2.2E-5                    0.2758693874503244
2.21E-5                   0.2717863837127057
2.2199999999999998E-5     0.2677033810881016
2.23E-5                   0.2636203794908437
2.24E-5                   0.2596161574517173
2.2499999999999998E-5     0.25585102561212075
2.26E-5                   0.252085894959699
2.27E-5                   0.24832076542842568
2.28E-5                   0.2445556369522711
2.2899999999999998E-5     0.24081718092903653
2.3E-5                    0.23732214373317984
2.31E-5                   0.2338271072729832
2.3199999999999998E-5     0.2303320714932546
2.33E-5                   0.2268370363387999
2.34E-5                   0.22334200175442376
2.35E-5                   0.22005918956847367
2.3599999999999998E-5     0.21678762587242584
2.37E-5                   0.21351606257230307
2.38E-5                   0.21024449962667574
2.3899999999999998E-5     0.20705879151347784
2.4E-5                    0.20405935947874906
2.41E-5                   0.20105992797302247
2.42E-5                   0.1980604969616934
2.4299999999999998E-5     0.1951012880434832
2.44E-5                   0.1922370488124781
2.45E-5                   0.18937281013016058
2.4599999999999998E-5     0.18650908253623993
2.4699999999999997E-5     0.18372759759565788
2.48E-5                   0.18094611300865074
2.49E-5                   0.17820112104540684
2.4999999999999998E-5     0.17555501597781045
2.51E-5                   0.172908911099484
2.52E-5                   0.170330394529619
2.53E-5                   0.1677608436307665
2.5399999999999997E-5     0.16525604894654156
2.55E-5                   0.162774614890058
2.56E-5                   0.16035659178647996
2.5699999999999998E-5     0.15795425460654516
2.58E-5                   0.15560685311970407
2.59E-5                   0.15326777036637923
2.6E-5                    0.15099353072647664
2.6099999999999997E-5     0.14872390321392415
2.62E-5                   0.14651427870426073
2.63E-5                   0.14430953730270935
2.6399999999999998E-5     0.1421707915839677
2.65E-5                   0.14003961073088556
2.66E-5                   0.13795661577210316
2.67E-5                   0.1358857541416026
2.6799999999999998E-5     0.13386267882275624
2.69E-5                   0.1318564416855876
2.7E-5                    0.12989589430410423
2.7099999999999998E-5     0.12795228487138602
2.7199999999999997E-5     0.1260421342913778
2.73E-5                   0.12415568675485888
2.74E-5                   0.12230436857977946
2.7499999999999998E-5     0.12048967227616876
2.76E-5                   0.1187163243496176
2.77E-5                   0.11694297654456097
2.7799999999999998E-5     0.11516962885400825
2.7899999999999997E-5     0.11345702730302688
2.8E-5                    0.11178437097481303
2.81E-5                   0.11011171471392482
2.8199999999999998E-5     0.10843905851450157
2.83E-5                   0.10683637247539887
2.84E-5                   0.10525866960076358
2.8499999999999998E-5     0.10368096681654407
2.8599999999999997E-5     0.10210326411781015
2.87E-5                   0.10060243592295544
2.88E-5                   0.09911304495643244
2.8899999999999998E-5     0.09762365403535272
2.9E-5                    0.09613461092742814
2.91E-5                   0.09473023471019293
2.9199999999999998E-5     0.09332585855684139
2.9299999999999997E-5     0.09192148246389625
2.94E-5                   0.09053295369899873
2.95E-5                   0.08924367088275267
2.9599999999999998E-5     0.08795438810498177
2.97E-5                   0.08666510536300112
2.98E-5                   0.08537582265412597
2.99E-5                   0.08408653997567145
2.9999999999999997E-5     0.08279725732495269
3.01E-5                   0.08150797469928481
3.02E-5                   0.08027617262565653
3.0299999999999998E-5     0.07912885551868186
3.04E-5                   0.07798153844908438
3.05E-5                   0.07683422141497032
3.06E-5                   0.07568690441444577
3.07E-5                   0.07453958744561683
3.0799999999999996E-5     0.07339227050658977
3.09E-5                   0.07224495359547055
3.1E-5                    0.07118228033761013
3.11E-5                   0.07016090418510505
3.12E-5                   0.06913952805444706
3.13E-5                   0.06811815194430068
3.14E-5                   0.06709677585333057
3.15E-5                   0.06607539978020106
3.1599999999999996E-5     0.06505402372357684
3.17E-5                   0.06403264768212225
3.18E-5                   0.06311670775526647
3.1899999999999996E-5     0.062207582448047624
3.2E-5                    0.061298457156284764
3.21E-5                   0.060389331879036126
3.22E-5                   0.059480206615359965
3.23E-5                   0.058571081364314284
3.24E-5                   0.05766195612495731
3.25E-5                   0.05677347020099028
3.26E-5                   0.05596429737302346
3.2699999999999995E-5     0.05515512455741825
3.28E-5                   0.05434595175351031
3.29E-5                   0.05353677896063547
3.2999999999999996E-5     0.05272760617812951
3.31E-5                   0.05191843340532815
3.32E-5                   0.051109260641567164
3.3299999999999996E-5     0.05034219886514474
3.34E-5                   0.04962192570515405
3.35E-5                   0.04890165255236455
3.36E-5                   0.048181379406307935
3.37E-5                   0.047461106266515715
3.38E-5                   0.04674083313251958
3.39E-5                   0.046020560003851185
3.4E-5                    0.04530028688004209
3.4099999999999995E-5     0.04463861999782748
3.42E-5                   0.043997449190567285
3.43E-5                   0.04335627838934426
3.4399999999999996E-5     0.042715107593827996
3.45E-5                   0.04207393680368797
3.46E-5                   0.04143276601859376
3.4699999999999996E-5     0.040791595238214996
3.48E-5                   0.04015099547183109
3.49E-5                   0.03958039133717022
3.5E-5                    0.039009787206150184
3.51E-5                   0.03843918307853808
3.52E-5                   0.03786857895410111
3.53E-5                   0.037297974832606495
3.54E-5                   0.0367273707138213
3.5499999999999996E-5     0.03615676659751277
3.56E-5                   0.03561065345480267
3.57E-5                   0.03512901298344363
3.5799999999999996E-5     0.034647372513719986
3.59E-5                   0.03416573204549162
3.6E-5                    0.0336840915786185
3.6099999999999997E-5     0.03320245111296062
3.62E-5                   0.03272081064837784
3.63E-5                   0.032239170184730145
3.64E-5                   0.031757529721877516
3.65E-5                   0.03127588925967983
3.6599999999999995E-5     0.03079424879799708
3.67E-5                   0.030312608336689167
3.68E-5                   0.02983096787561606
3.6899999999999996E-5     0.029349327414637735
3.7E-5                    0.02886768695361406
3.71E-5                   0.028386046492405025
3.7199999999999996E-5     0.027985734355733167
3.73E-5                   0.027604537404536455
3.74E-5                   0.027223340455764748
3.75E-5                   0.026842143509348666
3.76E-5                   0.02646094656521873
3.77E-5                   0.026079749623305535
3.78E-5                   0.0256985526835397
3.79E-5                   0.025317355745851748
3.7999999999999995E-5     0.024936158810172308
3.81E-5                   0.0245549618764319
3.82E-5                   0.02417376494456114
3.8299999999999996E-5     0.023792568014490627
3.84E-5                   0.023411371086150885
3.85E-5                   0.02303017415947253
3.8599999999999996E-5     0.022648977234386147
3.87E-5                   0.022295106564187546
3.88E-5                   0.02199332507523618
3.89E-5                   0.021691543586760596
3.9E-5                    0.021389762098726256
3.9099999999999995E-5     0.021087980611098726
3.92E-5                   0.020786199123843475
3.93E-5                   0.020484417636926055
3.9399999999999995E-5     0.020182636150311992
3.95E-5                   0.019880854663966763
3.96E-5                   0.019579073177855916
3.9699999999999996E-5     0.019277291691944982
3.98E-5                   0.018975510206199437
3.99E-5                   0.01867372872058482
3.9999999999999996E-5     0.018371947235066678
4.01E-5                   0.018070165749610474
4.02E-5                   0.017768384264181755
4.03E-5                   0.017521775355665507
4.04E-5                   0.01728279754940673
4.0499999999999995E-5     0.017043819743562394
4.06E-5                   0.016804841938115392
4.07E-5                   0.016565864133048662
4.0799999999999996E-5     0.016326886328345138
4.09E-5                   0.01608790852398771
4.1E-5                    0.01584893071995932
4.1099999999999996E-5     0.015609952916242908
4.12E-5                   0.015370975112821365
4.13E-5                   0.015131997309677623
4.14E-5                   0.014893019506794633
4.15E-5                   0.014654041704155275
4.1599999999999995E-5     0.014415063901742511
4.17E-5                   0.014176086099539232
4.18E-5                   0.013957734446435433
4.1899999999999995E-5     0.013768711831756944
4.2E-5                    0.013579689217286493
4.21E-5                   0.01339066660301561
4.2199999999999996E-5     0.013201643988935814
4.23E-5                   0.013012621375038592
4.24E-5                   0.012823598761315468
4.2499999999999996E-5     0.01263457614775797
4.26E-5                   0.012445553534357577
4.27E-5                   0.012256530921105815
4.28E-5                   0.012067508307994211
4.29E-5                   0.011878485695014247
4.2999999999999995E-5     0.011689463082157462
4.31E-5                   0.011500440469415346
4.32E-5                   0.011311417856779414
4.3299999999999995E-5     0.011122395244241197
4.34E-5                   0.010970503337707401
4.35E-5                   0.010820677355587735
4.3599999999999996E-5     0.010670851373474052
4.37E-5                   0.010521025391362133
4.38E-5                   0.010371199409247784
4.3899999999999996E-5     0.010221373427126814
4.4E-5                    0.010071547444994998
4.41E-5                   0.009921721462848143
4.42E-5                   0.009771895480682056
4.43E-5                   0.00962206949849252
4.4399999999999995E-5     0.009472243516275349
4.45E-5                   0.009322417534026323
4.46E-5                   0.009172591551741242
4.4699999999999996E-5     0.00902276556941592
4.48E-5                   0.008872939587046134
4.49E-5                   0.008738238704110415
4.4999999999999996E-5     0.008619812556868287
4.51E-5                   0.008501386409719678
4.52E-5                   0.008382960262662508
4.5299999999999997E-5     0.008264534115694699
4.54E-5                   0.008146107968814138
4.5499999999999995E-5     0.00802768182201876
4.56E-5                   0.007909255675306459
4.57E-5                   0.007790829528675152
4.5799999999999995E-5     0.007672403382122761
4.59E-5                   0.007553977235647181
4.6E-5                    0.007435551089246331
4.6099999999999996E-5     0.007317124942918133
4.62E-5                   0.007198698796660476
4.63E-5                   0.007080272650471286
4.6399999999999996E-5     0.0069622414369292784
4.65E-5                   0.006868354600022359
4.66E-5                   0.006774467763081955
4.67E-5                   0.006680580926107037
4.68E-5                   0.006586694089096561
4.6899999999999995E-5     0.0064928072520495025
4.7E-5                    0.006398920414964816
4.71E-5                   0.006305033577841471
4.7199999999999995E-5     0.006211146740678441
4.73E-5                   0.006117259903474677
4.74E-5                   0.006023373066229153
4.7499999999999996E-5     0.005929486228940839
4.76E-5                   0.005835599391608688
4.77E-5                   0.005741712554231671
4.7799999999999996E-5     0.005647825716808763
4.79E-5                   0.005553938879338913
4.8E-5                    0.005470869018449605
4.81E-5                   0.005396631756760379
4.82E-5                   0.005322394495106244
4.8299999999999995E-5     0.005248157233486697
4.84E-5                   0.005173919971901212
4.85E-5                   0.005099682710349284
4.8599999999999995E-5     0.005025445448830402
4.87E-5                   0.004951208187344044
4.88E-5                   0.0048769709258897
4.8899999999999996E-5     0.00480273366446686
4.9E-5                    0.004728496403075003
4.91E-5                   0.004654259141713618
4.9199999999999997E-5     0.004580021880382197
4.93E-5                   0.0045057846190802164
4.9399999999999995E-5     0.004431547357807172
4.95E-5                   0.004358620484789486
4.96E-5                   0.004299818725737081
4.9699999999999995E-5     0.004241016966667138
4.98E-5                   0.004182215207579392
4.99E-5                   0.004123413448473592
4.9999999999999996E-5     0.004064611689349488
5.01E-5                   0.004005809930206816
5.02E-5                   0.003947008171045328
5.0299999999999996E-5     0.0038882064118647714
5.04E-5                   0.0038294046526648837
5.05E-5                   0.0037706028934454128
5.06E-5                   0.0037118011342061105
5.07E-5                   0.003652999374946714
5.0799999999999995E-5     0.0035941976156669765
5.09E-5                   0.0035353958563666328
5.1E-5                    0.0034765940970454346
5.1099999999999995E-5     0.003428083246547022
5.12E-5                   0.003385898630235273
5.13E-5                   0.0033437140139177843
5.1399999999999996E-5     0.003301529397594466
5.15E-5                   0.0032593447812652183
5.16E-5                   0.00321716016492995
5.1699999999999996E-5     0.003174975548588569
5.18E-5                   0.0031327909322409774
5.1899999999999994E-5     0.0030906063158870852
5.2E-5                    0.0030484216995267923
5.21E-5                   0.003006237083160009
5.2199999999999995E-5     0.0029640524667866436
5.23E-5                   0.0029218678504065957
5.24E-5                   0.0028796832340197754
5.2499999999999995E-5     0.0028374986176260895
5.26E-5                   0.00279531400122544
5.27E-5                   0.0027531293848177354
5.2799999999999996E-5     0.0027109447684028837
5.29E-5                   0.002668760151980786
5.3E-5                    0.00262657553555135
5.3099999999999996E-5     0.0025843909191144866
5.32E-5                   0.0025422063026700943
5.3299999999999995E-5     0.0025000216862180844
5.34E-5                   0.002457837069758359
5.35E-5                   0.0024156524532908254
5.3599999999999995E-5     0.002373467836815393
5.37E-5                   0.002331283220331961
5.38E-5                   0.0022890986038404393
5.3899999999999996E-5     0.0022469139873407366
5.4E-5                    0.0022047293708327533
5.41E-5                   0.002162544754316398
5.4199999999999996E-5     0.002131334549217407
5.43E-5                   0.002105098903509761
5.4399999999999994E-5     0.0020788632578073616
5.4499999999999997E-5     0.002052627612110182
5.46E-5                   0.0020263919664182013
5.4699999999999995E-5     0.002000156320731399
5.48E-5                   0.0019739206750497484
5.49E-5                   0.0019476850293732287
5.4999999999999995E-5     0.0019214493837018188
5.51E-5                   0.0018952137380354934
5.52E-5                   0.0018689780923742307
5.5299999999999996E-5     0.0018427424467180099
5.54E-5                   0.0018165068010668052
5.55E-5                   0.0017902711554205952
5.5599999999999996E-5     0.0017640355097793593
5.57E-5                   0.0017377998641430713
5.5799999999999994E-5     0.001711564218511712
5.59E-5                   0.0016853285728852558
5.6E-5                    0.0016590929272636808
5.6099999999999995E-5     0.001632857281646966
5.62E-5                   0.0016066216360350863
5.63E-5                   0.00158038599042802
5.6399999999999995E-5     0.001554150344825747
5.65E-5                   0.0015279146992282398
5.66E-5                   0.0015016790536354786
5.6699999999999996E-5     0.0014754434080474419
5.68E-5                   0.0014492077624641037
5.69E-5                   0.0014229721168854434
5.6999999999999996E-5     0.0013967364713114393
5.71E-5                   0.001370500825742066
5.7199999999999994E-5     0.0013442651801773042
5.73E-5                   0.001325514335285026
5.74E-5                   0.0013091675018309676
5.7499999999999995E-5     0.0012928206683750759
5.76E-5                   0.0012764738349173427
5.77E-5                   0.0012601270014577638
5.7799999999999995E-5     0.0012437801679963357
5.79E-5                   0.0012274333345330493
5.8E-5                    0.0012110865010679013
5.8099999999999996E-5     0.0011947396676008867
5.82E-5                   0.001178392834131998
5.8299999999999994E-5     0.0011620460006612325
5.8399999999999997E-5     0.0011456991671885822
5.85E-5                   0.001129352333714042
5.8599999999999995E-5     0.0011130055002376085
5.87E-5                   0.0010966586667592738
5.88E-5                   0.0010803118332790328
5.8899999999999995E-5     0.0010639649997968824
5.9E-5                    0.001047618166312814
5.91E-5                   0.0010312713328268234
5.9199999999999996E-5     0.0010149244993389065
5.93E-5                   9.985776658490556E-4
5.94E-5                   9.822308323572662E-4
5.9499999999999996E-5     9.65883998863534E-4
5.96E-5                   9.49537165367851E-4
5.9699999999999994E-5     9.331903318702147E-4
5.98E-5                   9.168434983706165E-4
5.99E-5                   9.004966648690524E-4
5.9999999999999995E-5     8.841498313655186E-4
6.01E-5                   8.678029978600068E-4
6.02E-5                   8.514561643525125E-4
6.0299999999999995E-5     8.35109330843032E-4
6.04E-5                   8.238738145758773E-4
6.05E-5                   8.137172918125499E-4
6.0599999999999996E-5     8.035607690500673E-4
6.07E-5                   7.934042462884268E-4
6.08E-5                   7.832477235276279E-4
6.0899999999999996E-5     7.7309120076767E-4
6.1E-5                    7.629346780085502E-4
6.11E-5                   7.527781552502688E-4
6.12E-5                   7.426216324928228E-4
6.13E-5                   7.324651097362119E-4
6.14E-5                   7.223085869804347E-4
6.149999999999999E-5      7.121520642254909E-4
6.159999999999999E-5      7.019955414713772E-4
6.17E-5                   6.91839018718093E-4
6.18E-5                   6.816824959656372E-4
6.19E-5                   6.715259732140084E-4
6.2E-5                    6.613694504632053E-4
6.209999999999999E-5      6.512129277132283E-4
6.22E-5                   6.41056404964073E-4
6.23E-5                   6.308998822157391E-4
6.24E-5                   6.207433594682262E-4
6.25E-5                   6.105868367215322E-4
6.26E-5                   6.004303139756561E-4
6.269999999999999E-5      5.902737912305982E-4
6.28E-5                   5.801172684863539E-4
6.29E-5                   5.699607457429236E-4
6.3E-5                    5.598042230003057E-4
6.31E-5                   5.496477002584994E-4
6.319999999999999E-5      5.394911775175043E-4
6.33E-5                   5.293346547773163E-4
6.34E-5                   5.191781320379357E-4
6.35E-5                   5.13335407023854E-4
6.36E-5                   5.080014806320146E-4
6.37E-5                   5.026675542399838E-4
6.379999999999999E-5      4.973336278477628E-4
6.39E-5                   4.919997014553494E-4
6.4E-5                    4.8666577506274457E-4
6.41E-5                   4.8133184866994805E-4
6.42E-5                   4.7599792227695953E-4
6.429999999999999E-5      4.7066399588377965E-4
6.44E-5                   4.653300694904065E-4
6.45E-5                   4.599961430968411E-4