% Model:              20230225_JW_4_25.mph
% Version:            COMSOL 5.6.0.401
% Date:               Feb 25 2023, 20:49
% Dimension:          1
% Nodes:              1501
% Expressions:        1
% Description:        点图
% X                       Height
0                         16.560411515671532
1.0E-7                    16.55350211903225
2.0E-7                    16.52479294075253
3.0E-7                    16.45656169623219
4.0E-7                    16.367250759186607
5.0E-7                    16.25683392265389
6.0E-7                    16.125346549769652
7.0E-7                    15.97269283035049
8.0E-7                    15.810064065013147
9.0E-7                    15.63909328821041
1.0E-6                    15.461116125292955
1.1E-6                    15.279341352428956
1.2E-6                    15.09525942263897
1.2999999999999998E-6     14.908967913659547
1.4E-6                    14.722126432572678
1.5E-6                    14.535494445172967
1.6E-6                    14.34884632438167
1.6999999999999998E-6     14.16281133743454
1.8E-6                    13.977714960554254
1.9E-6                    13.793884195426541
2.0E-6                    13.611610416370132
2.1E-6                    13.431082060424632
2.2E-6                    13.252206121633135
2.3E-6                    13.07521242456066
2.4E-6                    12.899794791899872
2.4999999999999998E-6     12.72654720544213
2.5999999999999997E-6     12.55420262777307
2.7E-6                    12.38445913767951
2.8E-6                    12.215951672865728
2.8999999999999998E-6     12.04883696566924
3.0E-6                    11.884191505320558
3.1E-6                    11.720774318692769
3.2E-6                    11.559526089214172
3.2999999999999997E-6     11.400145365044978
3.3999999999999996E-6     11.241882394630691
3.5E-6                    11.086164030462623
3.6E-6                    10.932153023713788
3.6999999999999997E-6     10.77970162188616
3.8E-6                    10.628541411659358
3.9E-6                    10.479722209274613
4.0E-6                    10.335198519918558
4.1E-6                    10.186296438468883
4.2E-6                    10.037430574152872
4.2999999999999995E-6     9.896003007127502
4.4E-6                    9.764874187531381
4.5E-6                    9.629200915665727
4.6E-6                    9.488463460044688
4.7E-6                    9.35528522716972
4.8E-6                    9.220533856936921
4.9E-6                    9.09167871638469
4.9999999999999996E-6     8.961449884533994
5.0999999999999995E-6     8.831819628184233
5.199999999999999E-6      8.707039978192109
5.3E-6                    8.581097578224254
5.4E-6                    8.458449673216439
5.5E-6                    8.336100120048819
5.6E-6                    8.216024010078842
5.7E-6                    8.097636707906242
5.7999999999999995E-6     7.980506483596293
5.899999999999999E-6      7.865035633801684
6.0E-6                    7.750946989986601
6.1E-6                    7.638010952083101
6.2E-6                    7.526621496227483
6.3E-6                    7.4175603013110845
6.4E-6                    7.309853131306311
6.5E-6                    7.203696905254282
6.5999999999999995E-6     7.098958812088854
6.699999999999999E-6      6.99564400454471
6.799999999999999E-6      6.893794493084376
6.9E-6                    6.793326408665964
7.0E-6                    6.694272148515408
7.1E-6                    6.59654971170869
7.2E-6                    6.5002058584367
7.2999999999999996E-6     6.405225766461234
7.3999999999999995E-6     6.3115248053536375
7.499999999999999E-6      6.219200664309253
7.6E-6                    6.128189054835043
7.699999999999999E-6      6.038463156852438
7.8E-6                    5.9498961270705495
7.899999999999999E-6      5.862889761972027
8.0E-6                    5.776282346162959
8.1E-6                    5.689609882093304
8.2E-6                    5.609703100860934
8.3E-6                    5.526638256505912
8.4E-6                    5.445755460908826
8.5E-6                    5.364966144013067
8.599999999999999E-6      5.286126006482447
8.7E-6                    5.20844720471691
8.8E-6                    5.131721997216464
8.9E-6                    5.056016107466636
9.0E-6                    4.981549832048716
9.1E-6                    4.908165181564183
9.2E-6                    4.835716765365356
9.299999999999999E-6      4.764323829442235
9.4E-6                    4.694047930792373
9.499999999999999E-6      4.6248270734480466
9.6E-6                    4.556465514538069
9.7E-6                    4.489119936804325
9.8E-6                    4.422814623090933
9.9E-6                    4.3574375946575685
9.999999999999999E-6      4.292969664357294
1.01E-5                   4.229468331236298
1.0199999999999999E-5     4.1669238513145155
1.03E-5                   4.105244954760459
1.0399999999999999E-5     4.044430539457761
1.05E-5                   3.984645678690546
1.06E-5                   3.925724834109544
1.07E-5                   3.8676248526908967
1.08E-5                   3.810091641654806
1.0899999999999999E-5     3.753822278562491
1.1E-5                    3.6981608025428536
1.1099999999999999E-5     3.6431828871740968
1.12E-5                   3.589335966682223
1.13E-5                   3.5360177352331252
1.14E-5                   3.483532815118841
1.15E-5                   3.4319523932413767
1.1599999999999999E-5     3.3808818863714576
1.17E-5                   3.330783219776979
1.1799999999999999E-5     3.28137962630931
1.19E-5                   3.232466567758547
1.2E-5                    3.18464523941855
1.21E-5                   3.1373289509989046
1.22E-5                   3.0906134689794547
1.2299999999999999E-5     3.044843250387328
1.24E-5                   2.99952704285257
1.2499999999999999E-5     2.9549438783459308
1.26E-5                   2.9111119082462404
1.2699999999999999E-5     2.8677128207990363
1.28E-5                   2.8251563357724625
1.29E-5                   2.78319293119534
1.3E-5                    2.74165898739707
1.31E-5                   2.7011492262489116
1.3199999999999999E-5     2.6607953302571055
1.33E-5                   2.6210027756119656
1.3399999999999999E-5     2.5821884119025826
1.35E-5                   2.543641435586219
1.3599999999999999E-5     2.505647725251771
1.37E-5                   2.4682612467924208
1.38E-5                   2.4314409908467587
1.3899999999999999E-5     2.395238197471203
1.4E-5                    2.359561444805813
1.4099999999999999E-5     2.324412092029631
1.42E-5                   2.289773344088242
1.4299999999999999E-5     2.2556745303637173
1.44E-5                   2.2220618692865686
1.45E-5                   2.188958583926683
1.4599999999999999E-5     2.156336114511209
1.47E-5                   2.124205505421197
1.4799999999999999E-5     2.092578331909795
1.49E-5                   2.061377123742647
1.4999999999999999E-5     2.0307231980012177
1.51E-5                   2.000489778789524
1.52E-5                   1.9706694403635212
1.53E-5                   1.9412548346201741
1.5399999999999998E-5     1.9123758196387142
1.55E-5                   1.883915657504114
1.56E-5                   1.8558427166351537
1.57E-5                   1.828152914281442
1.5799999999999998E-5     1.8008962531619204
1.59E-5                   1.774104356362735
1.6E-5                    1.747830586497331
1.61E-5                   1.7218528459933682
1.62E-5                   1.69591118410273
1.63E-5                   1.670912214719556
1.64E-5                   1.6459132628467934
1.6499999999999998E-5     1.6213525129561634
1.66E-5                   1.597301428476092
1.67E-5                   1.5732503595375462
1.68E-5                   1.5500071762287864
1.69E-5                   1.526866146217834
1.7E-5                    1.503999467891593
1.71E-5                   1.4817343373158967
1.7199999999999998E-5     1.45946921956223
1.73E-5                   1.4378268718217344
1.74E-5                   1.4164048503340314
1.75E-5                   1.395116024109996
1.76E-5                   1.3745054688799243
1.77E-5                   1.3538949242240086
1.78E-5                   1.3339619549413229
1.7899999999999998E-5     1.3145006403240829
1.8E-5                    1.295039333378144
1.81E-5                   1.2755780334023779
1.82E-5                   1.2561167396954231
1.8299999999999998E-5     1.2372931618984737
1.84E-5                   1.2192795531407457
1.85E-5                   1.201265952235834
1.8599999999999998E-5     1.183252358625675
1.87E-5                   1.1652387717520307
1.88E-5                   1.147615506703386
1.89E-5                   1.1309412741318585
1.8999999999999998E-5     1.114267047123851
1.91E-5                   1.0975928252366072
1.92E-5                   1.0809186080272593
1.9299999999999998E-5     1.0644208324552373
1.94E-5                   1.0489861793081106
1.95E-5                   1.0335515308206886
1.96E-5                   1.0181168866443915
1.9699999999999998E-5     1.0026822464305618
1.98E-5                   0.9872476098304668
1.99E-5                   0.9729597235069174
1.9999999999999998E-5     0.9586796280180967
2.01E-5                   0.9443995359387375
2.02E-5                   0.9301194469894503
2.03E-5                   0.9158393608907932
2.0399999999999998E-5     0.9024485326967454
2.05E-5                   0.8892218586852622
2.06E-5                   0.8759951874452786
2.07E-5                   0.8627685187570996
2.0799999999999997E-5     0.8495418524009947
2.09E-5                   0.837006274221601
2.1E-5                    0.824773856271291
2.1099999999999998E-5     0.8125414404247479
2.12E-5                   0.8003090265079424
2.13E-5                   0.7880766143468229
2.14E-5                   0.7763383681729543
2.1499999999999997E-5     0.7650110178455516
2.16E-5                   0.7536836694410236
2.17E-5                   0.7423563228181915
2.1799999999999998E-5     0.731028977835858
2.19E-5                   0.7200339691944987
2.2E-5                    0.7095439138699096
2.21E-5                   0.6990538596345034
2.2199999999999998E-5     0.6885638063836372
2.23E-5                   0.6780737540126578
2.24E-5                   0.6677838241492102
2.2499999999999998E-5     0.6581012548965925
2.26E-5                   0.6484186872827667
2.27E-5                   0.6387361212123481
2.28E-5                   0.6290535565899424
2.2899999999999998E-5     0.6194365562097981
2.3E-5                    0.6104179183309223
2.31E-5                   0.6013992805774525
2.3199999999999998E-5     0.5923806428908601
2.33E-5                   0.5833620052126117
2.34E-5                   0.5743433674841726
2.35E-5                   0.5660124767322761
2.3599999999999998E-5     0.5577180385340328
2.37E-5                   0.5494236013177513
2.38E-5                   0.5411291650228439
2.3899999999999998E-5     0.5329854067737507
2.4E-5                    0.5251685680239299
2.41E-5                   0.5173517293634977
2.42E-5                   0.5095348907461773
2.4299999999999998E-5     0.5018373914582368
2.44E-5                   0.4944216705228994
2.45E-5                   0.4870059506978452
2.4599999999999998E-5     0.47959250380496826
2.4699999999999997E-5     0.4725450056271064
2.48E-5                   0.4654975070737326
2.49E-5                   0.45849840330822905
2.4999999999999998E-5     0.45163044118427337
2.51E-5                   0.444762480166021
2.52E-5                   0.43812667581297043
2.53E-5                   0.4315216652378975
2.5399999999999997E-5     0.4250952768874865
2.55E-5                   0.4187333268043176
2.56E-5                   0.41250716113128244
2.5699999999999998E-5     0.40631458378880836
2.58E-5                   0.40027356724674573
2.59E-5                   0.3942555006231351
2.6E-5                    0.38840368538962433
2.6099999999999997E-5     0.38256372817643086
2.62E-5                   0.37689330597815635
2.63E-5                   0.37123337976800347
2.6399999999999998E-5     0.3657153171145263
2.65E-5                   0.3602200960049386
2.66E-5                   0.35487036686818674
2.67E-5                   0.34955098111009064
2.6799999999999998E-5     0.3443511030833069
2.69E-5                   0.3391905345208941
2.7E-5                    0.3341366302501149
2.7099999999999998E-5     0.3291331920551378
2.7199999999999997E-5     0.32422944403964205
2.73E-5                   0.31938103126327166
2.74E-5                   0.31461462874823554
2.7499999999999998E-5     0.30994439338358626
2.76E-5                   0.3053827366871564
2.77E-5                   0.30082108010231845
2.7799999999999998E-5     0.2962594236200558
2.7899999999999997E-5     0.29185475496214724
2.8E-5                    0.2875533177926582
2.81E-5                   0.2832518807132729
2.8199999999999998E-5     0.27895044371638444
2.83E-5                   0.2748269007040333
2.84E-5                   0.2707668754243418
2.8499999999999998E-5     0.26670685021867796
2.8599999999999997E-5     0.26264682508069664
2.87E-5                   0.25878748695516096
2.88E-5                   0.2549580065831008
2.8899999999999998E-5     0.25112852627681354
2.9E-5                    0.24729992701995598
2.91E-5                   0.24368580911231924
2.9199999999999998E-5     0.24007169125624578
2.9299999999999997E-5     0.23645757344725937
2.94E-5                   0.23288452283310254
2.95E-5                   0.22956866143752278
2.9599999999999998E-5     0.22625280008786322
2.97E-5                   0.22293693878064683
2.98E-5                   0.21962107751239654
2.99E-5                   0.21630521627963525
2.9999999999999997E-5     0.21298935507888578
3.01E-5                   0.2096734939066709
3.02E-5                   0.2065050699571702
3.0299999999999998E-5     0.2035533493657016
3.04E-5                   0.20060162881249574
3.05E-5                   0.19764990829510756
3.06E-5                   0.1946981878110915
3.07E-5                   0.19174646735800202
3.0799999999999996E-5     0.18879474693339401
3.09E-5                   0.18584302653482165
3.1E-5                    0.18310939033689463
3.11E-5                   0.18048215603368337
3.12E-5                   0.1778549217553048
3.13E-5                   0.17522768750002918
3.14E-5                   0.17260045326612702
3.15E-5                   0.16997321905186816
3.1599999999999996E-5     0.16734598485552316
3.17E-5                   0.16471875067536185
3.18E-5                   0.16236257106418983
3.1899999999999996E-5     0.1600239104154768
3.2E-5                    0.15768524978290144
3.21E-5                   0.1553465891652488
3.22E-5                   0.1530079285613042
3.23E-5                   0.15066926796985233
3.24E-5                   0.1483306073896784
3.25E-5                   0.14604505222660707
3.26E-5                   0.14396357147133082
3.2699999999999995E-5     0.1418820907295123
3.28E-5                   0.13980061000029004
3.29E-5                   0.13771912928280297
3.2999999999999996E-5     0.13563764857618998
3.31E-5                   0.13355616787958968
3.32E-5                   0.13147468719214084
3.3299999999999996E-5     0.12950142873430417
3.34E-5                   0.12764841368191798
3.35E-5                   0.12579539863745856
3.36E-5                   0.12394238360032218
3.37E-5                   0.1220893685699045
3.38E-5                   0.12023635354560167
3.39E-5                   0.1183833385268098
3.4E-5                    0.1165303235129246
3.4099999999999995E-5     0.11482839220603681
3.42E-5                   0.11317929865998923
3.43E-5                   0.111530205120123
3.4399999999999996E-5     0.10988111158601009
3.45E-5                   0.108232018057222
3.46E-5                   0.10658292453333076
3.4699999999999996E-5     0.10493383101390817
3.48E-5                   0.10328620153763796
3.49E-5                   0.10181803723543098
3.5E-5                    0.10034987293751066
3.51E-5                   0.09888170864357607
3.52E-5                   0.09741354435332657
3.53E-5                   0.09594538006646149
3.54E-5                   0.0944772157826799
3.5499999999999996E-5     0.09300905150168126
3.56E-5                   0.09160403787899234
3.57E-5                   0.09036526884266127
3.5799999999999996E-5     0.08912649980756919
3.59E-5                   0.0878877307735349
3.6E-5                    0.08664896174037746
3.6099999999999997E-5     0.08541019270791593
3.62E-5                   0.08417142367596912
3.63E-5                   0.08293265464435605
3.64E-5                   0.08169388561289583
3.65E-5                   0.08045511658140721
3.6599999999999995E-5     0.07921634754970937
3.67E-5                   0.07797757851762106
3.68E-5                   0.07673880948496138
3.6899999999999996E-5     0.07550004045154941
3.7E-5                    0.07426127141720386
3.71E-5                   0.07302250238174385
3.7199999999999996E-5     0.07199267724464807
3.73E-5                   0.0710119617034305
3.74E-5                   0.07003124616546264
3.75E-5                   0.06905053063065476
3.76E-5                   0.06806981509891692
3.77E-5                   0.06708909957015935
3.78E-5                   0.06610838404429231
3.79E-5                   0.06512766852122585
3.7999999999999995E-5     0.06414695300087034
3.81E-5                   0.06316623748313577
3.82E-5                   0.06218552196793246
3.8299999999999996E-5     0.06120480645517061
3.84E-5                   0.060224090944760306
3.85E-5                   0.059243375436611796
3.8599999999999996E-5     0.058262659930635334
3.87E-5                   0.05735225692397832
3.88E-5                   0.05657588328197319
3.89E-5                   0.05579950964015572
3.9E-5                    0.055023135998481215
3.9099999999999995E-5     0.0542467623569052
3.92E-5                   0.05347038871538297
3.93E-5                   0.05269401507387
3.9399999999999995E-5     0.05191764143232172
3.95E-5                   0.05114126779069347
3.96E-5                   0.05036489414894073
3.9699999999999996E-5     0.049588520507018896
3.98E-5                   0.048812146864883346
3.99E-5                   0.048035773222489496
3.9999999999999996E-5     0.04725939957979281
4.01E-5                   0.04648302593674861
4.02E-5                   0.04570665229331237
4.03E-5                   0.0450724450354973
4.04E-5                   0.044457901282085446
4.0499999999999995E-5     0.0438433575293951
4.06E-5                   0.0432288137774041
4.07E-5                   0.04261427002609044
4.0799999999999996E-5     0.04199972627543209
4.09E-5                   0.041385182525406954
4.1E-5                    0.04077063877599298
4.1099999999999996E-5     0.040156095027168166
4.12E-5                   0.039541551278910375
4.13E-5                   0.03892700753119759
4.14E-5                   0.0383124637840078
4.15E-5                   0.03769792003731887
4.1599999999999995E-5     0.037083376291108826
4.17E-5                   0.03646883254535553
4.18E-5                   0.03590714249436768
4.1899999999999995E-5     0.03542060694902332
4.2E-5                    0.03493407140372505
4.21E-5                   0.03444753585846188
4.2199999999999996E-5     0.03396100031322286
4.23E-5                   0.03347446476799692
4.24E-5                   0.03298792922277308
4.2499999999999996E-5     0.03250139367754037
4.26E-5                   0.03201485813228773
4.27E-5                   0.03152832258700418
4.28E-5                   0.031041787041678762
4.29E-5                   0.030555251496300402
4.2999999999999995E-5     0.03006871595085816
4.31E-5                   0.029582180405340965
4.32E-5                   0.02909564485973786
4.3299999999999995E-5     0.028609109314037866
4.34E-5                   0.02821863227142855
4.35E-5                   0.02783349985143415
4.3599999999999996E-5     0.027448367431569223
4.37E-5                   0.02706323501182829
4.38E-5                   0.026678102592205977
4.3899999999999996E-5     0.02629297017269689
4.4E-5                    0.02590783775329556
4.41E-5                   0.0255227053339966
4.42E-5                   0.025137572914794612
4.43E-5                   0.024752440495684137
4.4399999999999995E-5     0.02436730807665981
4.45E-5                   0.023982175657716157
4.46E-5                   0.023597043238847797
4.4699999999999996E-5     0.023211910820049333
4.48E-5                   0.022826778401315313
4.49E-5                   0.022480308598532
4.4999999999999996E-5     0.022175440099185064
4.51E-5                   0.02187057159985596
4.52E-5                   0.021565703100542007
4.5299999999999997E-5     0.02126083460124052
4.54E-5                   0.020955966101948734
4.5499999999999995E-5     0.020651097602663992
4.56E-5                   0.02034622910338354
4.57E-5                   0.020041360604104684
4.5799999999999995E-5     0.019736492104824737
4.59E-5                   0.019431623605540942
4.6E-5                    0.019126755106250618
4.6099999999999996E-5     0.018821886606951072
4.62E-5                   0.018517018107639546
4.63E-5                   0.018212149608313365
4.6399999999999996E-5     0.017908302998826266
4.65E-5                   0.017666930074105202
4.66E-5                   0.01742555714939629
4.67E-5                   0.017184184224698213
4.68E-5                   0.01694281130000961
4.6899999999999995E-5     0.016701438375329173
4.7E-5                    0.016460065450655537
4.71E-5                   0.016218692525987385
4.7199999999999995E-5     0.0159773196013234
4.73E-5                   0.01573594667666222
4.74E-5                   0.015494573752002524
4.7499999999999996E-5     0.015253200827342992
4.76E-5                   0.015011827902682257
4.77E-5                   0.014770454978019007
4.7799999999999996E-5     0.014529082053351924
4.79E-5                   0.014287709128679634
4.8E-5                    0.014074049009245488
4.81E-5                   0.013883017773041142
4.82E-5                   0.01369198653684445
4.8299999999999995E-5     0.013500955300654776
4.84E-5                   0.013309924064471419
4.85E-5                   0.013118892828293734
4.8599999999999995E-5     0.01292786159212107
4.87E-5                   0.012736830355952735
4.88E-5                   0.012545799119788077
4.8899999999999996E-5     0.012354767883626439
4.9E-5                    0.012163736647467139
4.91E-5                   0.011972705411309516
4.9199999999999997E-5     0.011781674175152926
4.93E-5                   0.011590642938996672
4.9399999999999995E-5     0.011399611702840115
4.95E-5                   0.011211956387898863
4.96E-5                   0.011060691259408938
4.9699999999999995E-5     0.010909426130913863
4.98E-5                   0.010758161002413285
4.99E-5                   0.01060689587390689
4.9999999999999996E-5     0.010455630745394356
5.01E-5                   0.010304365616875331
5.02E-5                   0.0101531004883495
5.0299999999999996E-5     0.010001835359816535
5.04E-5                   0.009850570231276091
5.05E-5                   0.00969930510272785
5.06E-5                   0.009548039974171491
5.07E-5                   0.009396774845606661
5.0799999999999995E-5     0.009245509717033052
5.09E-5                   0.009094244588450314
5.1E-5                    0.008942979459858124
5.1099999999999995E-5     0.008818207941837537
5.12E-5                   0.008709723108271023
5.13E-5                   0.008601238274691113
5.1399999999999996E-5     0.008492753441097697
5.15E-5                   0.008384268607490633
5.16E-5                   0.00827578377386981
5.1699999999999996E-5     0.008167298940235112
5.18E-5                   0.008058814106586407
5.1899999999999994E-5     0.007950329272923586
5.2E-5                    0.007841844439246511
5.21E-5                   0.007733359605555073
5.2199999999999995E-5     0.007624874771849155
5.23E-5                   0.0075163899381286235
5.24E-5                   0.0074079051043933605
5.2499999999999995E-5     0.007299420270643257
5.26E-5                   0.007190935436878172
5.27E-5                   0.007082450603097997
5.2799999999999996E-5     0.006973965769302613
5.29E-5                   0.006865480935491886
5.3E-5                    0.006756996101665706
5.3099999999999996E-5     0.006648511267823954
5.32E-5                   0.006540026433966497
5.3299999999999995E-5     0.006431541600093226
5.34E-5                   0.006323056766204006
5.35E-5                   0.0062145719322987255
5.3599999999999995E-5     0.006106087098377269
5.37E-5                   0.005997602264439498
5.38E-5                   0.005889117430485304
5.3899999999999996E-5     0.005780632596514568
5.4E-5                    0.005672147762527159
5.41E-5                   0.005563662928522958
5.4199999999999996E-5     0.005483357950774178
5.43E-5                   0.005415826539023334
5.4399999999999994E-5     0.005348295127281861
5.4499999999999997E-5     0.005280763715549715
5.46E-5                   0.005213232303826875
5.4699999999999995E-5     0.005145700892113313
5.48E-5                   0.005078169480408992
5.49E-5                   0.005010638068713888
5.4999999999999995E-5     0.004943106657027975
5.51E-5                   0.004875575245351213
5.52E-5                   0.00480804383368358
5.5299999999999996E-5     0.004740512422025049
5.54E-5                   0.004672981010375582
5.55E-5                   0.004605449598735153
5.5599999999999996E-5     0.004537918187103739
5.57E-5                   0.004470386775481301
5.5799999999999994E-5     0.0044028553638678185
5.59E-5                   0.004335323952263252
5.6E-5                    0.004267792540667576
5.6099999999999995E-5     0.004200261129080768
5.62E-5                   0.004132729717502788
5.63E-5                   0.004065198305933612
5.6399999999999995E-5     0.003997666894373213
5.65E-5                   0.003930135482821554
5.66E-5                   0.0038626040712786097
5.6699999999999996E-5     0.003795072659744356
5.68E-5                   0.0037275412482187533
5.69E-5                   0.0036600098367017765
5.6999999999999996E-5     0.003592478425193402
5.71E-5                   0.0035249470136935897
5.7199999999999994E-5     0.0034574156022023194
5.73E-5                   0.0034091956787387404
5.74E-5                   0.0033671783303538152
5.7499999999999995E-5     0.0033251609819652693
5.76E-5                   0.0032831436335730895
5.77E-5                   0.003241126285177271
5.7799999999999995E-5     0.003199108936777811
5.79E-5                   0.003157091588374695
5.8E-5                    0.003115074239967921
5.8099999999999996E-5     0.003073056891557483
5.82E-5                   0.003031039543143369
5.8299999999999994E-5     0.002989022194725577
5.8399999999999997E-5     0.0029470048463040963
5.85E-5                   0.0029049874978789203
5.8599999999999995E-5     0.002862970149450046
5.87E-5                   0.002820952801017461
5.88E-5                   0.0027789354525811607
5.8899999999999995E-5     0.0027369181041411407
5.9E-5                    0.0026949007556973884
5.91E-5                   0.0026528834072498996
5.9199999999999996E-5     0.0026108660587986715
5.93E-5                   0.002568848710343689
5.94E-5                   0.00252683136188495
5.9499999999999996E-5     0.0024848140134224495
5.96E-5                   0.002442796664956174
5.9699999999999994E-5     0.0024007793164861234
5.98E-5                   0.0023587619680122845
5.99E-5                   0.0023167446195346535
5.9999999999999995E-5     0.0022747272710532257
6.01E-5                   0.002232709922567989
6.02E-5                   0.002190692574078938
6.0299999999999995E-5     0.0021486752255860703
6.04E-5                   0.002119761436316426
6.05E-5                   0.0020936137941289226
6.0599999999999996E-5     0.002067466151943092
6.07E-5                   0.002041318509758929
6.08E-5                   0.0020151708675764336
6.0899999999999996E-5     0.001989023225395606
6.1E-5                    0.0019628755832164406
6.11E-5                   0.0019367279410389398
6.12E-5                   0.0019105802988630982
6.13E-5                   0.001884432656688915
6.14E-5                   0.00185828501451639
6.149999999999999E-5      0.0018321373723455237
6.159999999999999E-5      0.0018059897301763075
6.17E-5                   0.0017798420880087438
6.18E-5                   0.0017536944458428308
6.19E-5                   0.0017275468036785661
6.2E-5                    0.0017013991615159488
6.209999999999999E-5      0.0016752515193549805
6.22E-5                   0.001649103877195652
6.23E-5                   0.0016229562350379655
6.24E-5                   0.001596808592881919
6.25E-5                   0.0015706609507275112
6.26E-5                   0.0015445133085747404
6.269999999999999E-5      0.0015183656664236077
6.28E-5                   0.0014922180242741049
6.29E-5                   0.001466070382126234
6.3E-5                    0.0014399227399799926
6.31E-5                   0.0014137750978353797
6.319999999999999E-5      0.0013876274556923964
6.33E-5                   0.0013614798135510343
6.34E-5                   0.0013353321714112956
6.35E-5                   0.0013203011262854973
6.36E-5                   0.0013065812481650892
6.37E-5                   0.0012928613700443103
6.379999999999999E-5      0.0012791414919231625
6.39E-5                   0.001265421613801641
6.4E-5                    0.0012517017356797487
6.41E-5                   0.0012379818575574844
6.42E-5                   0.0012242619794348483
6.429999999999999E-5      0.001210542101311842
6.44E-5                   0.001196822223188461
6.45E-5                   0.0011831023450647072
6.46E-5                   0.0011693824669405809
6.47E-5                   0.001155662588816081
6.48E-5                   0.0011419427106912083
6.489999999999999E-5      0.0011282228325659636