% Model:              20230225_JW_4_25.mph
% Version:            COMSOL 5.6.0.401
% Date:               Feb 25 2023, 20:49
% Dimension:          1
% Nodes:              1501
% Expressions:        1
% Description:        点图
% X                       Height
0                         20.401968470701796
1.0E-7                    20.384227372368294
2.0E-7                    20.322660536000605
3.0E-7                    20.209935780764614
4.0E-7                    20.077975896181375
5.0E-7                    19.92402645609903
6.0E-7                    19.74294979262069
7.0E-7                    19.54150122005886
8.0E-7                    19.333721938384446
9.0E-7                    19.12020024943003
1.0E-6                    18.90295978694981
1.1E-6                    18.68233530116372
1.2E-6                    18.459773145253344
1.2999999999999998E-6     18.237239847643234
1.4E-6                    18.01427929757901
1.5E-6                    17.791551335227187
1.6E-6                    17.56936958243858
1.6999999999999998E-6     17.34816213662207
1.8E-6                    17.128022520472868
1.9E-6                    16.90963665606251
2.0E-6                    16.692880472156844
2.1E-6                    16.47802455571203
2.2E-6                    16.264921911513664
2.3E-6                    16.053740123237173
2.4E-6                    15.844166316951465
2.4999999999999998E-6     15.636866292219777
2.5999999999999997E-6     15.430548901607407
2.7E-6                    15.22681233619299
2.8E-6                    15.024358426032007
2.8999999999999998E-6     14.823351333292193
3.0E-6                    14.62510340526947
3.1E-6                    14.428190720000355
3.2E-6                    14.233618658531725
3.2999999999999997E-6     14.041051451046087
3.3999999999999996E-6     13.84973425188745
3.5E-6                    13.661568354489887
3.6E-6                    13.474846564889468
3.6999999999999997E-6     13.28944411085051
3.8E-6                    13.107267870443172
3.9E-6                    12.92657558419434
4.0E-6                    12.748301515401314
4.1E-6                    12.571030691740363
4.2E-6                    12.396052533433881
4.2999999999999995E-6     12.231162531635832
4.4E-6                    12.063138960664391
4.5E-6                    11.890714930358499
4.6E-6                    11.72178435547098
4.7E-6                    11.558047028573885
4.8E-6                    11.394634227689082
4.9E-6                    11.233563474992595
4.9999999999999996E-6     11.075215706633456
5.0999999999999995E-6     10.917478778495596
5.199999999999999E-6      10.763614691333936
5.3E-6                    10.609960244025535
5.4E-6                    10.459675620894005
5.5E-6                    10.309473641659963
5.6E-6                    10.162892434450182
5.7E-6                    10.017244525735046
5.7999999999999995E-6     9.873620907666796
5.899999999999999E-6      9.731817496892024
6.0E-6                    9.591443665850255
6.1E-6                    9.452735246885446
6.2E-6                    9.315982678348576
6.3E-6                    9.181829390774968
6.4E-6                    9.049424869571572
6.5E-6                    8.918850457973903
6.5999999999999995E-6     8.790045096839624
6.699999999999999E-6      8.662958440301312
6.799999999999999E-6      8.537560884772564
6.9E-6                    8.41386601100678
7.0E-6                    8.291838115098473
7.1E-6                    8.171496699116508
7.2E-6                    8.052734654658456
7.2999999999999996E-6     7.935700511080057
7.3999999999999995E-6     7.82013673320043
7.499999999999999E-6      7.706337044755078
7.6E-6                    7.594039405701208
7.699999999999999E-6      7.48336000866478
7.8E-6                    7.374136334502336
7.899999999999999E-6      7.266655901518501
8.0E-6                    7.1601063808474725
8.1E-6                    7.056630105398495
8.2E-6                    6.955304426219719
8.3E-6                    6.851680651776699
8.4E-6                    6.750902012336792
8.5E-6                    6.652244195421984
8.599999999999999E-6      6.5544070755723505
8.7E-6                    6.458300345505641
8.8E-6                    6.363633565773611
8.9E-6                    6.269981424315914
9.0E-6                    6.17779818676033
9.1E-6                    6.087028927021498
9.2E-6                    5.997490745873871
9.299999999999999E-6      5.909219195543881
9.4E-6                    5.8222890734501025
9.499999999999999E-6      5.736568995764169
9.6E-6                    5.652009083680085
9.7E-6                    5.568651578590865
9.8E-6                    5.486631153280258
9.9E-6                    5.405686685882054
9.999999999999999E-6      5.325890680823474
1.01E-5                   5.247272609341744
1.0199999999999999E-5     5.169845730641198
1.03E-5                   5.093470982318856
1.0399999999999999E-5     5.018157074456156
1.05E-5                   4.944126037350518
1.06E-5                   4.871137000961
1.07E-5                   4.79917243708989
1.08E-5                   4.727913800742832
1.0899999999999999E-5     4.658202692826547
1.1E-5                    4.589242199577595
1.1099999999999999E-5     4.521125820070461
1.12E-5                   4.4543985562331265
1.13E-5                   4.388327112265685
1.14E-5                   4.3232928666770425
1.15E-5                   4.259362506857455
1.1599999999999999E-5     4.1960604021835355
1.17E-5                   4.133972376103046
1.1799999999999999E-5     4.072727205246827
1.19E-5                   4.012078652516231
1.2E-5                    3.952813726605034
1.21E-5                   3.8941505013223883
1.22E-5                   3.836203039161969
1.2299999999999999E-5     3.77947737368082
1.24E-5                   3.723296924198458
1.2499999999999999E-5     3.6679712422955495
1.26E-5                   3.6136392574931646
1.2699999999999999E-5     3.5598494732488275
1.28E-5                   3.507017789257067
1.29E-5                   3.454986676803996
1.3E-5                    3.403526364285631
1.31E-5                   3.3528957284458905
1.3199999999999999E-5     3.302987002465557
1.33E-5                   3.2539067811439777
1.3399999999999999E-5     3.205621076356541
1.35E-5                   3.157796415945999
1.3599999999999999E-5     3.1106963493237765
1.37E-5                   3.064257790761492
1.38E-5                   3.0186443313976845
1.3899999999999999E-5     2.9737496374326184
1.4E-5                    2.929463302474518
1.4099999999999999E-5     2.885862384903687
1.42E-5                   2.8428974384807604
1.4299999999999999E-5     2.80056820959639
1.44E-5                   2.758864425738658
1.45E-5                   2.7177836554534283
1.4599999999999999E-5     2.6773050275696484
1.47E-5                   2.6374283918453973
1.4799999999999999E-5     2.5981845215667048
1.49E-5                   2.559452096962362
1.4999999999999999E-5     2.521420951694641
1.51E-5                   2.4838970948298655
1.52E-5                   2.446881880437311
1.53E-5                   2.410381969825305
1.5399999999999998E-5     2.3745371058545097
1.55E-5                   2.339211595809005
1.56E-5                   2.30436895927635
1.57E-5                   2.2700027459993293
1.5799999999999998E-5     2.2361661678201785
1.59E-5                   2.2029146866093865
1.6E-5                    2.1703017982879618
1.61E-5                   2.1380528789563895
1.62E-5                   2.1058488895674286
1.63E-5                   2.0748192861203782
1.64E-5                   2.0437896869961554
1.6499999999999998E-5     2.013301881057323
1.66E-5                   1.9834442270853123
1.67E-5                   1.9535865774965817
1.68E-5                   1.9247325738273109
1.69E-5                   1.8960054646695825
1.7E-5                    1.8676184174168418
1.71E-5                   1.8399770077598991
1.7199999999999998E-5     1.8123356017391534
1.73E-5                   1.785467260122671
1.74E-5                   1.7588724097170618
1.75E-5                   1.7324425325006219
1.76E-5                   1.70685278608099
1.77E-5                   1.6812630427857016
1.78E-5                   1.6565157878552659
1.7899999999999998E-5     1.632354979872954
1.8E-5                    1.6081941741019985
1.81E-5                   1.5840333708755752
1.82E-5                   1.5598725705269985
1.8299999999999998E-5     1.5365022095145557
1.84E-5                   1.5141357900727468
1.85E-5                   1.4917693717404426
1.8599999999999998E-5     1.4694029547837706
1.87E-5                   1.4470365394689628
1.88E-5                   1.42515348300219
1.89E-5                   1.4044456781455836
1.8999999999999998E-5     1.383737874318599
1.91E-5                   1.3630300717309178
1.92E-5                   1.3423222705922944
1.9299999999999998E-5     1.3218349961323228
1.94E-5                   1.3026764893241758
1.95E-5                   1.2835179833955794
1.96E-5                   1.2643594785140273
1.9699999999999998E-5     1.2452009748470587
1.98E-5                   1.226042472562256
1.99E-5                   1.208293278812982
1.9999999999999998E-5     1.1905536556345218
2.01E-5                   1.1728140330544776
2.02E-5                   1.1550744112037807
2.03E-5                   1.1373347902133937
2.0399999999999998E-5     1.120709201883813
2.05E-5                   1.104289257940629
2.06E-5                   1.0878693148446326
2.07E-5                   1.0714493727023329
2.0799999999999997E-5     1.0550294316202582
2.09E-5                   1.0394636869623597
2.1E-5                    1.0242726513769898
2.1099999999999998E-5     1.0090816157952622
2.12E-5                   0.9938905802984832
2.13E-5                   0.9786995449679766
2.14E-5                   0.9641178427672269
2.1499999999999997E-5     0.9500427970614023
2.16E-5                   0.9359677524398579
2.17E-5                   0.9218927089700537
2.1799999999999998E-5     0.9078176667194553
2.19E-5                   0.8941672363538612
2.2E-5                    0.8811619623775231
2.21E-5                   0.8681566876413476
2.2199999999999998E-5     0.855151412196748
2.23E-5                   0.8421461360951481
2.24E-5                   0.8293736452989742
2.2499999999999998E-5     0.8173076486755253
2.26E-5                   0.8052416536752994
2.27E-5                   0.7931756603392263
2.28E-5                   0.7811096687082367
2.2899999999999998E-5     0.7691353804910619
2.3E-5                    0.7579980105570167
2.31E-5                   0.7468606392909248
2.3199999999999998E-5     0.7357232667272996
2.33E-5                   0.7245858929006593
2.34E-5                   0.7134485178455301
2.35E-5                   0.7030877678964281
2.3599999999999998E-5     0.6927681821677055
2.37E-5                   0.68244859849972
2.38E-5                   0.6721290169143599
2.3899999999999998E-5     0.6619904432192346
2.4E-5                    0.6522445916195534
2.41E-5                   0.6424987389898058
2.42E-5                   0.6327528853555677
2.4299999999999998E-5     0.6231779356050564
2.44E-5                   0.6140065173812382
2.45E-5                   0.6048350999098674
2.4599999999999998E-5     0.5956660465045037
2.4699999999999997E-5     0.5868776706539064
2.48E-5                   0.5780892947011812
2.49E-5                   0.5693769884309543
2.4999999999999998E-5     0.5608708155917305
2.51E-5                   0.5523646427005786
2.52E-5                   0.544129496869643
2.53E-5                   0.5359303015525471
2.5399999999999997E-5     0.5279383748961682
2.55E-5                   0.5200212194847915
2.56E-5                   0.5122912576487946
2.5699999999999998E-5     0.5046076014109533
2.58E-5                   0.4971085639057994
2.59E-5                   0.489637481759297
2.6E-5                    0.48236772738332523
2.6099999999999997E-5     0.4751123421312253
2.62E-5                   0.4680668454316865
2.63E-5                   0.4610350988468231
2.6399999999999998E-5     0.4541891973860179
2.65E-5                   0.4473700637021429
2.66E-5                   0.44072143276615006
2.67E-5                   0.43411147920731
2.6799999999999998E-5     0.4276538567591852
2.69E-5                   0.4212457649825548
2.7E-5                    0.4149720728148897
2.7099999999999998E-5     0.4087592507352867
2.7199999999999997E-5     0.4026666707414103
2.73E-5                   0.396644178261885
2.74E-5                   0.39072556003729053
2.7499999999999998E-5     0.3849261109229439
2.76E-5                   0.37926121104461147
2.77E-5                   0.3735963111783417
2.7799999999999998E-5     0.3679314113284368
2.7899999999999997E-5     0.36246101190429486
2.8E-5                    0.3571185113430218
2.81E-5                   0.351776010814728
2.8199999999999998E-5     0.34643351032301833
2.83E-5                   0.34131274537111167
2.84E-5                   0.33627115188095014
2.8499999999999998E-5     0.3312295584010736
2.8599999999999997E-5     0.32618796493451446
2.87E-5                   0.3213945709618238
2.88E-5                   0.31663810348156424
2.8899999999999998E-5     0.3118816360226519
2.9E-5                    0.30712626713298574
2.91E-5                   0.30263834475588625
2.9199999999999998E-5     0.2981504223886019
2.9299999999999997E-5     0.2936625000332692
2.94E-5                   0.28922548782831653
2.95E-5                   0.2851073079671635
2.9599999999999998E-5     0.28098912811693066
2.97E-5                   0.27687094827927067
2.98E-5                   0.2727527684558366
2.99E-5                   0.26863458864828144
2.9999999999999997E-5     0.2645164088582579
3.01E-5                   0.2603982290874188
3.02E-5                   0.25646326138119835
3.0299999999999998E-5     0.2527975789039865
3.04E-5                   0.24913189642679248
3.05E-5                   0.24546621395078122
3.06E-5                   0.241800531477117
3.07E-5                   0.23813484900696452
3.0799999999999996E-5     0.23446916654148864
3.09E-5                   0.2308034840818535
3.1E-5                    0.22740844574755711
3.11E-5                   0.2241454529435017
3.12E-5                   0.22088246014297222
3.13E-5                   0.217619467346791
3.14E-5                   0.21435647455578055
3.15E-5                   0.21109348177076248
3.1599999999999996E-5     0.20783048899255943
3.17E-5                   0.20456749622199313
3.18E-5                   0.20164150679334683
3.1899999999999996E-5     0.19873729874974724
3.2E-5                    0.19583309070901905
3.21E-5                   0.19292888267174163
3.22E-5                   0.19002467463849473
3.23E-5                   0.1871204666098572
3.24E-5                   0.18421625858640872
3.25E-5                   0.1813779064764151
3.26E-5                   0.1787926266130944
3.2699999999999995E-5     0.17620734674957575
3.28E-5                   0.17362206688626708
3.29E-5                   0.17103678702357708
3.2999999999999996E-5     0.16845150716191426
3.31E-5                   0.16586622730168665
3.32E-5                   0.16328094744330282
3.3299999999999996E-5     0.16083027259793745
3.34E-5                   0.15852915450595143
3.35E-5                   0.15622803641699837
3.36E-5                   0.15392691833136726
3.37E-5                   0.1516258002493467
3.38E-5                   0.14932468217122552
3.39E-5                   0.14702356409729284
3.4E-5                    0.1447224460278371
3.4099999999999995E-5     0.14260873409466088
3.42E-5                   0.14056056277850762
3.43E-5                   0.13851239146112984
3.4399999999999996E-5     0.13646422014273035
3.45E-5                   0.13441604882351124
3.46E-5                   0.13236787750367518
3.4699999999999996E-5     0.13031970618342484
3.48E-5                   0.12827335427491535
3.49E-5                   0.1264500299306798
3.5E-5                    0.12462670558912745
3.51E-5                   0.1228033812504022
3.52E-5                   0.12098005691464826
3.53E-5                   0.11915673258200982
3.54E-5                   0.11733340825263072
3.5499999999999996E-5     0.11551008392665536
3.56E-5                   0.11376519422574416
3.57E-5                   0.11222678426790761
3.5799999999999996E-5     0.11068837431091917
3.59E-5                   0.10914996435486442
3.6E-5                    0.10761155439982939
3.6099999999999997E-5     0.10607314444590003
3.62E-5                   0.10453473449316204
3.63E-5                   0.10299632454170135
3.64E-5                   0.10145791459160398
3.65E-5                   0.09991950464295557
3.6599999999999995E-5     0.0983810946958422
3.67E-5                   0.09684268475034956
3.68E-5                   0.0953042748065636
3.6899999999999996E-5     0.09376586486457032
3.7E-5                    0.09222745492445536
3.71E-5                   0.09068904498630474
3.7199999999999996E-5     0.08941005439620907
3.73E-5                   0.08819203700695041
3.74E-5                   0.0869740196167783
3.75E-5                   0.08575600222573565
3.76E-5                   0.0845379848338652
3.77E-5                   0.08331996744120984
3.78E-5                   0.08210195004781254
3.79E-5                   0.08088393265371596
3.7999999999999995E-5     0.07966591525896317
3.81E-5                   0.07844789786359681
3.82E-5                   0.07722988046765986
3.8299999999999996E-5     0.07601186307119523
3.84E-5                   0.07479384567424564
3.85E-5                   0.07357582827685404
3.8599999999999996E-5     0.07235781087906333
3.87E-5                   0.07122712618980627
3.88E-5                   0.07026291471481502
3.89E-5                   0.06929870324007817
3.9E-5                    0.06833449176561669
3.9099999999999995E-5     0.06737028029145191
3.92E-5                   0.06640606881760483
3.93E-5                   0.06544185734409663
3.9399999999999995E-5     0.06447764587094858
3.95E-5                   0.06351343439818169
3.96E-5                   0.06254922292581717
3.9699999999999996E-5     0.061585011453876244
3.98E-5                   0.060620799982379944
3.99E-5                   0.059656588511349466
3.9999999999999996E-5     0.058692377040806036
4.01E-5                   0.05772816557077068
4.02E-5                   0.056763954101264606
4.03E-5                   0.0559763709639424
4.04E-5                   0.0552132178761161
4.0499999999999995E-5     0.054450064788185766
4.06E-5                   0.053686911700161793
4.07E-5                   0.0529237586120548
4.0799999999999996E-5     0.052160605523875365
4.09E-5                   0.05139745243563393
4.1E-5                    0.050634299347341045
4.1099999999999996E-5     0.04987114625900735
4.12E-5                   0.04910799317064324
4.13E-5                   0.0483448400822593
4.14E-5                   0.047581686993866126
4.15E-5                   0.04681853390547416
4.1599999999999995E-5     0.046055380817094024
4.17E-5                   0.04529222772873616
4.18E-5                   0.04459464666038628
4.1899999999999995E-5     0.04399030472693544
4.2E-5                    0.043385962793500314
4.21E-5                   0.04278162086008616
4.2199999999999996E-5     0.0421772789266982
4.23E-5                   0.0415729369933416
4.24E-5                   0.04096859506002159
4.2499999999999996E-5     0.04036425312674343
4.26E-5                   0.03975991119351226
4.27E-5                   0.03915556926033329
4.28E-5                   0.0385512273272118
4.29E-5                   0.03794688539415291
4.2999999999999995E-5     0.03734254346116193
4.31E-5                   0.036738201528243974
4.32E-5                   0.036133859595404286
4.3299999999999995E-5     0.03552951766264813
4.34E-5                   0.03504466995408927
4.35E-5                   0.034566470813863076
4.3599999999999996E-5     0.03408827167369318
4.37E-5                   0.033610072533582135
4.38E-5                   0.03313187339353256
4.3899999999999996E-5     0.03265367425354707
4.4E-5                    0.0321754751136282
4.41E-5                   0.03169727597377856
4.42E-5                   0.03121907683400081
4.43E-5                   0.030740877694297442
4.4399999999999995E-5     0.030262678554671137
4.45E-5                   0.02978447941512441
4.46E-5                   0.02930628027565989
4.4699999999999996E-5     0.028828081136280204
4.48E-5                   0.02834988199698788
4.49E-5                   0.02791960306203339
4.4999999999999996E-5     0.027540886674259493
4.51E-5                   0.027162170286447893
4.52E-5                   0.026783453898599895
4.5299999999999997E-5     0.02640473751071681
4.54E-5                   0.026026021122799864
4.5499999999999995E-5     0.025647304734850388
4.56E-5                   0.025268588346869608
4.57E-5                   0.024889871958858837
4.5799999999999995E-5     0.024511155570819385
4.59E-5                   0.024132439182752465
4.6E-5                    0.0237537227946594
4.6099999999999996E-5     0.02337500640654148
4.62E-5                   0.022996290018399947
4.63E-5                   0.0226175736302361
4.6399999999999996E-5     0.022240128868376275
4.65E-5                   0.021940425539895173
4.66E-5                   0.02164072221147709
4.67E-5                   0.021341018883122665
4.68E-5                   0.021041315554832518
4.6899999999999995E-5     0.020741612226607323
4.7E-5                    0.02044190889844767
4.71E-5                   0.02014220557035423
4.7199999999999995E-5     0.019842502242327656
4.73E-5                   0.01954279891436855
4.74E-5                   0.019243095586477573
4.7499999999999996E-5     0.018943392258655385
4.76E-5                   0.018643688930902583
4.77E-5                   0.01834398560321983
4.7799999999999996E-5     0.01804428227560778
4.79E-5                   0.017744578948067035
4.8E-5                    0.01747924127885035
4.81E-5                   0.017241964878071173
4.82E-5                   0.01700468847725218
4.8299999999999995E-5     0.016767412076393703
4.84E-5                   0.01653013567549603
4.85E-5                   0.016292859274559493
4.8599999999999995E-5     0.016055582873584422
4.87E-5                   0.015818306472571094
4.88E-5                   0.015581030071519845
4.8899999999999996E-5     0.015343753670430997
4.9E-5                    0.01510647726930484
4.91E-5                   0.014869200868141705
4.9199999999999997E-5     0.014631924466941917
4.93E-5                   0.014394648065705755
4.9399999999999995E-5     0.014157371664433569
4.95E-5                   0.013924290136047877
4.96E-5                   0.013736426549089789
4.9699999999999995E-5     0.013548562962177721
4.98E-5                   0.0133606993753118
4.99E-5                   0.013172835788492198
4.9999999999999996E-5     0.012984972201719087
5.01E-5                   0.0127971086149926
5.02E-5                   0.012609245028312907
5.0299999999999996E-5     0.012421381441680177
5.04E-5                   0.012233517855094547
5.05E-5                   0.012045654268556182
5.06E-5                   0.011857790682065257
5.07E-5                   0.011669927095621905
5.0799999999999995E-5     0.011482063509226304
5.09E-5                   0.011294199922878596
5.1E-5                    0.011106336336578941
5.1099999999999995E-5     0.010951388167706128
5.12E-5                   0.010816674425378512
5.13E-5                   0.010681960683053101
5.1399999999999996E-5     0.010547246940729952
5.15E-5                   0.010412533198409115
5.16E-5                   0.01027781945609065
5.1699999999999996E-5     0.010143105713774626
5.18E-5                   0.010008391971461084
5.1899999999999994E-5     0.009873678229150093
5.2E-5                    0.0097389644868417
5.21E-5                   0.009604250744535966
5.2199999999999995E-5     0.00946953700223296
5.23E-5                   0.009334823259932724
5.24E-5                   0.009200109517635321
5.2499999999999995E-5     0.009065395775340818
5.26E-5                   0.008930682033049255
5.27E-5                   0.0087959682907607
5.2799999999999996E-5     0.008661254548475217
5.29E-5                   0.008526540806192846
5.3E-5                    0.008391827063913653
5.3099999999999996E-5     0.008257113321637708
5.32E-5                   0.008122399579365051
5.3299999999999995E-5     0.00798768583709575
5.34E-5                   0.007852972094829849
5.35E-5                   0.007718258352567417
5.3599999999999995E-5     0.0075835446103085175
5.37E-5                   0.00744883086805319
5.38E-5                   0.007314117125801504
5.3899999999999996E-5     0.007179403383553521
5.4E-5                    0.007044689641309287
5.41E-5                   0.0069099758990688615
5.4199999999999996E-5     0.0068102343801767894
5.43E-5                   0.0067263453198086
5.4399999999999994E-5     0.006642456259438248
5.4499999999999997E-5     0.0065585671990657434
5.46E-5                   0.006474678138691104
5.4699999999999995E-5     0.006390789078314348
5.48E-5                   0.0063069000179354785
5.49E-5                   0.006223010957554517
5.4999999999999995E-5     0.00613912189717148
5.51E-5                   0.006055232836786372
5.52E-5                   0.005971343776399215
5.5299999999999996E-5     0.005887454716010025
5.54E-5                   0.005803565655618806
5.55E-5                   0.005719676595225577
5.5599999999999996E-5     0.005635787534830361
5.57E-5                   0.005551898474433157
5.5799999999999994E-5     0.005468009414033994
5.59E-5                   0.00538412035363287
5.6E-5                    0.0053002312932298075
5.6099999999999995E-5     0.005216342232824826
5.62E-5                   0.005132453172417928
5.63E-5                   0.0050485641120091365
5.6399999999999995E-5     0.004964675051598466
5.65E-5                   0.004880785991185921
5.66E-5                   0.004796896930771522
5.6699999999999996E-5     0.004713007870355289
5.68E-5                   0.004629118809937224
5.69E-5                   0.004545229749517347
5.6999999999999996E-5     0.004461340689095677
5.71E-5                   0.004377451628672217
5.7199999999999994E-5     0.004293562568246994
5.73E-5                   0.004233685042935302
5.74E-5                   0.00418151968093381
5.7499999999999995E-5     0.004129354318933101
5.76E-5                   0.004077188956933171
5.77E-5                   0.0040250235949340265
5.7799999999999995E-5     0.0039728582329356735
5.79E-5                   0.003920692870938109
5.8E-5                    0.0038685275089413397
5.8099999999999996E-5     0.003816362146945374
5.82E-5                   0.003764196784950206
5.8299999999999994E-5     0.0037120314229558476
5.8399999999999997E-5     0.0036598660609622946
5.85E-5                   0.0036077006989695534
5.8599999999999995E-5     0.003555535336977632
5.87E-5                   0.0035033699749865243
5.88E-5                   0.00345120461299624
5.8899999999999995E-5     0.0033990392510067843
5.9E-5                    0.003346873889018154
5.91E-5                   0.003294708527030355
5.9199999999999996E-5     0.003242543165043396
5.93E-5                   0.003190377803057272
5.94E-5                   0.0031382124410719897
5.9499999999999996E-5     0.0030860470790875574
5.96E-5                   0.0030338817171039686
5.9699999999999994E-5     0.002981716355121237
5.98E-5                   0.0029295509931393567
5.99E-5                   0.0028773856311583353
5.9999999999999995E-5     0.002825220269178179
6.01E-5                   0.002773054907198885
6.02E-5                   0.0027208895452204597
6.0299999999999995E-5     0.0026687241832429104
6.04E-5                   0.002632808031329317
6.05E-5                   0.0026003220699618904
6.0599999999999996E-5     0.0025678361085942217
6.07E-5                   0.0025353501472263084
6.08E-5                   0.0025028641858581514
6.0899999999999996E-5     0.002470378224489756
6.1E-5                    0.0024378922631211174
6.11E-5                   0.00240540630175224
6.12E-5                   0.0023729203403831224
6.13E-5                   0.0023404343790137654
6.14E-5                   0.002307948417644171
6.149999999999999E-5      0.002275462456274345
6.159999999999999E-5      0.002242976494904278
6.17E-5                   0.002210490533533976
6.18E-5                   0.0021780045721634398
6.19E-5                   0.00214551861079267
6.2E-5                    0.0021130326494216674
6.209999999999999E-5      0.002080546688050438
6.22E-5                   0.002048060726678973
6.23E-5                   0.002015574765307277
6.24E-5                   0.001983088803935352
6.25E-5                   0.0019506028425631992
6.26E-5                   0.0019181168811908177
6.269999999999999E-5      0.0018856309198182141
6.28E-5                   0.00185314495844538
6.29E-5                   0.0018206589970723205
6.3E-5                    0.0017881730356990367
6.31E-5                   0.0017556870743255287
6.319999999999999E-5      0.0017232011129518028
6.33E-5                   0.0016907151515778505
6.34E-5                   0.0016582291902036768
6.35E-5                   0.0016395627697207908
6.36E-5                   0.0016225263198153298
6.37E-5                   0.0016054898699099662
6.379999999999999E-5      0.0015884534200047043
6.39E-5                   0.0015714169700995384
6.4E-5                    0.0015543805201944717
6.41E-5                   0.001537344070289504
6.42E-5                   0.0015203076203846354
6.429999999999999E-5      0.0015032711704798685
6.44E-5                   0.0014862347205751984
6.45E-5                   0.0014691982706706275
6.46E-5                   0.001452161820766157
6.47E-5                   0.0014351253708617857
6.48E-5                   0.0014180889209575145
6.489999999999999E-5      0.0014010524710533453