% Model:              20230225_JW_4_00.mph
% Version:            COMSOL 5.6.0.401
% Date:               Feb 25 2023, 20:10
% Dimension:          1
% Nodes:              2001
% Expressions:        1
% Description:        点图
% X                       Height
0                         0.41713762204078075
1.0E-7                    0.41694807655329386
2.0E-7                    0.4167585312317499
3.0E-7                    0.41577439670574734
4.0E-7                    0.41472802268872705
5.0E-7                    0.4135852392116363
6.0E-7                    0.4155283986889515
7.0E-7                    0.41891460899168187
8.0E-7                    0.4250731076693769
9.0E-7                    0.4284699943902135
1.0E-6                    0.4295289034685115
1.1E-6                    0.4288052338983498
1.2E-6                    0.43181636970373954
1.2999999999999998E-6     0.43569312967162344
1.4E-6                    0.4372745930868264
1.5E-6                    0.4360779441657759
1.6E-6                    0.4395752423123683
1.6999999999999998E-6     0.44136095377589757
1.8E-6                    0.44058017371318003
1.9E-6                    0.4428867828022425
2.0E-6                    0.44369967547881267
2.1E-6                    0.4433432729920234
2.2E-6                    0.44520444720778884
2.3E-6                    0.4451135259319481
2.4E-6                    0.445615829159587
2.4999999999999998E-6     0.44592945252256466
2.5999999999999997E-6     0.446261417020155
2.7E-6                    0.4464273711674262
2.8E-6                    0.44632589582155807
2.8999999999999998E-6     0.44662129116999844
3.0E-6                    0.44640936839117823
3.1E-6                    0.4463852771629196
3.2E-6                    0.44622473325809164
3.2999999999999997E-6     0.44597912374325066
3.3999999999999996E-6     0.4457231960247107
3.5E-6                    0.4454457967035247
3.6E-6                    0.44510584328908037
3.6999999999999997E-6     0.44471531284744004
3.8E-6                    0.4442822151829552
3.9E-6                    0.4438260162664961
4.0E-6                    0.4433573815206647
4.1E-6                    0.4428340372487566
4.2E-6                    0.44228415065132004
4.2999999999999995E-6     0.4416971061628034
4.4E-6                    0.4411091498101108
4.5E-6                    0.44052081940541105
4.6E-6                    0.4398542051829325
4.7E-6                    0.4391818123935227
4.8E-6                    0.438495457494529
4.9E-6                    0.43780910743477236
4.9999999999999996E-6     0.43712276218345963
5.0999999999999995E-6     0.43638733389565576
5.199999999999999E-6      0.4356447572242541
5.3E-6                    0.43490218558825544
5.4E-6                    0.4341461289161694
5.5E-6                    0.433373936238935
5.6E-6                    0.43260174908451227
5.7E-6                    0.4318284499876941
5.7999999999999995E-6     0.4310266447666333
5.899999999999999E-6      0.4302248452632826
6.0E-6                    0.4294230514381035
6.1E-6                    0.4286051961241908
6.2E-6                    0.4277775060947384
6.3E-6                    0.42694982201279974
6.4E-6                    0.42612085497906166
6.5E-6                    0.4252868217447463
6.5999999999999995E-6     0.4244527944230772
6.699999999999999E-6      0.42361877297176853
6.799999999999999E-6      0.4227716927191224
6.9E-6                    0.42192104192689445
7.0E-6                    0.4210703972708097
7.1E-6                    0.4202187311267517
7.2E-6                    0.4193653026097681
7.2999999999999996E-6     0.41851188001675343
7.3999999999999995E-6     0.4176584633043265
7.499999999999999E-6      0.4168004528748285
7.6E-6                    0.4159422063864674
7.699999999999999E-6      0.41508396599846714
7.8E-6                    0.4142230632690993
7.899999999999999E-6      0.41335982326925436
8.0E-6                    0.4124965892976263
8.1E-6                    0.41163336131121403
8.2E-6                    0.41077013926699096
8.3E-6                    0.4099069231219055
8.4E-6                    0.40904371283288116
8.5E-6                    0.40818838223447623
8.599999999999999E-6      0.40733647487296437
8.7E-6                    0.40648457322518067
8.8E-6                    0.4056326772496462
8.9E-6                    0.40478078690485936
9.0E-6                    0.4039289021492944
9.1E-6                    0.4030770229414035
9.2E-6                    0.40222627178375503
9.299999999999999E-6      0.4013757057174532
9.4E-6                    0.40052514537820383
9.499999999999999E-6      0.39967459072602657
9.6E-6                    0.39882404172091745
9.7E-6                    0.3979734983228504
9.8E-6                    0.39712296049177664
9.9E-6                    0.39627242818762476
9.999999999999999E-6      0.39542190137030153
1.01E-5                   0.39457137999969133
1.0199999999999999E-5     0.3937208640356565
1.03E-5                   0.3928703534380377
1.0399999999999999E-5     0.3920198481666539
1.05E-5                   0.3911747539774383
1.06E-5                   0.3903524064344271
1.07E-5                   0.389530063943511
1.08E-5                   0.3887077264678429
1.0899999999999999E-5     0.3878853939705568
1.1E-5                    0.38706306641476723
1.1099999999999999E-5     0.3862407437635705
1.12E-5                   0.3854184259800436
1.13E-5                   0.3845961130272454
1.14E-5                   0.3837738048682157
1.15E-5                   0.3829515014659766
1.1599999999999999E-5     0.3821292027835314
1.17E-5                   0.38130690878386553
1.1799999999999999E-5     0.3804846194299462
1.19E-5                   0.37967076748358386
1.2E-5                    0.378864646586134
1.21E-5                   0.378058530647569
1.22E-5                   0.3772524196349288
1.2299999999999999E-5     0.37644631351523605
1.24E-5                   0.3756402122554963
1.2499999999999999E-5     0.37483411582269804
1.26E-5                   0.3740280241838127
1.2699999999999999E-5     0.37322193730579495
1.28E-5                   0.3724158551555828
1.29E-5                   0.37160977770009707
1.3E-5                    0.37080370490624265
1.31E-5                   0.3699976367409075
1.3199999999999999E-5     0.36919157317096346
1.33E-5                   0.3684042464719738
1.3399999999999999E-5     0.3676201863424928
1.35E-5                   0.36683613041532503
1.3599999999999999E-5     0.3660520786582367
1.37E-5                   0.36526803103898
1.38E-5                   0.3644839875252923
1.3899999999999999E-5     0.36369994808489675
1.4E-5                    0.3629159126855022
1.4099999999999999E-5     0.3621318812948032
1.42E-5                   0.3613478538804802
1.4299999999999999E-5     0.36056383041019985
1.44E-5                   0.35977981085161476
1.45E-5                   0.35899579517236363
1.4599999999999999E-5     0.3582102633721208
1.47E-5                   0.3574178806871824
1.4799999999999999E-5     0.3566255023868973
1.49E-5                   0.35583312844140397
1.4999999999999999E-5     0.35504075882082703
1.51E-5                   0.3542483934952767
1.52E-5                   0.35345603243484885
1.53E-5                   0.3526636756096252
1.5399999999999998E-5     0.3518713229896738
1.55E-5                   0.3510789745450482
1.56E-5                   0.3502866302457887
1.57E-5                   0.34949429006192145
1.5799999999999998E-5     0.3487019539634588
1.59E-5                   0.3479814753698837
1.6E-5                    0.347270954724585
1.61E-5                   0.34656043745362386
1.62E-5                   0.3458499235338042
1.63E-5                   0.34513941294192085
1.64E-5                   0.3444289056547593
1.6499999999999998E-5     0.34371840164909573
1.66E-5                   0.34300790090169697
1.67E-5                   0.34229740338932113
1.68E-5                   0.34158690908871703
1.69E-5                   0.3408799839484126
1.7E-5                    0.34019062604480316
1.71E-5                   0.339501271348358
1.7199999999999998E-5     0.33881191983614806
1.73E-5                   0.33812257148523567
1.74E-5                   0.3374332262726744
1.75E-5                   0.33674388417550966
1.76E-5                   0.336054545170778
1.77E-5                   0.3353652092355081
1.78E-5                   0.3346758763467198
1.7899999999999998E-5     0.33394333454504677
1.8E-5                    0.33319671431337594
1.81E-5                   0.3324500974745931
1.82E-5                   0.33170348400383615
1.8299999999999998E-5     0.33095687387623285
1.84E-5                   0.3302102670669015
1.85E-5                   0.3294636635509501
1.8599999999999998E-5     0.32871706330347705
1.87E-5                   0.32798912896978294
1.88E-5                   0.32730892036767756
1.89E-5                   0.3266287146507064
1.8999999999999998E-5     0.32594851179816914
1.91E-5                   0.3252683117893578
1.92E-5                   0.3245881146035573
1.9299999999999998E-5     0.3239079202200454
1.94E-5                   0.32322772861809257
1.95E-5                   0.32254753977696216
1.96E-5                   0.3218595631191187
1.9699999999999998E-5     0.3211697386324256
1.98E-5                   0.3204799171283479
1.99E-5                   0.31979009858587926
1.9999999999999998E-5     0.3191002829840061
2.01E-5                   0.3184104703017067
2.02E-5                   0.31772066051795217
2.03E-5                   0.3170308536117059
2.0399999999999998E-5     0.3163441035166936
2.05E-5                   0.31566341997399044
2.06E-5                   0.3149827390264659
2.07E-5                   0.3143020606545198
2.0799999999999997E-5     0.31362138483854596
2.09E-5                   0.3129407115589314
2.1E-5                    0.3122600407960567
2.1099999999999998E-5     0.3115793725302963
2.12E-5                   0.31089870674201825
2.13E-5                   0.31024471441959867
2.14E-5                   0.30959499987237277
2.1499999999999997E-5     0.3089452879562175
2.16E-5                   0.30829557865299206
2.17E-5                   0.30764587194454973
2.1799999999999998E-5     0.3069961678127379
2.19E-5                   0.30634646623939765
2.2E-5                    0.3056967672063643
2.21E-5                   0.3050384357771473
2.2199999999999998E-5     0.3043665303202371
2.23E-5                   0.30369462725262625
2.24E-5                   0.303022726555937
2.2499999999999998E-5     0.30235082821178516
2.26E-5                   0.30167893220178144
2.27E-5                   0.30100703850753063
2.28E-5                   0.30033514711063175
2.2899999999999998E-5     0.2996632579926783
2.3E-5                    0.29903839652993525
2.31E-5                   0.29841786829291533
2.3199999999999998E-5     0.2977973423752461
2.33E-5                   0.29717681876136964
2.34E-5                   0.2965562974357231
2.35E-5                   0.29593577838273866
2.3599999999999998E-5     0.295315261586844
2.37E-5                   0.2946947470324619
2.38E-5                   0.29406544564334247
2.3899999999999998E-5     0.2934250767199515
2.4E-5                    0.29278470994015254
2.41E-5                   0.2921443452872666
2.42E-5                   0.29150398274460937
2.4299999999999998E-5     0.2908636222954923
2.44E-5                   0.2902232639232215
2.45E-5                   0.2895829076110989
2.4599999999999998E-5     0.2889425533424215
2.4699999999999997E-5     0.28832659343578354
2.48E-5                   0.2877114032663143
2.49E-5                   0.2870962151119581
2.4999999999999998E-5     0.2864810289585553
2.51E-5                   0.2858658447919423
2.52E-5                   0.2852506625979515
2.53E-5                   0.28463548236241115
2.5399999999999997E-5     0.284020304071146
2.55E-5                   0.28341469705778627
2.56E-5                   0.2828188003843125
2.5699999999999998E-5     0.2822229057606994
2.58E-5                   0.2816270131723238
2.59E-5                   0.2810311226045584
2.6E-5                    0.28043523404277226
2.6099999999999997E-5     0.2798393474723302
2.62E-5                   0.2792434628785929
2.63E-5                   0.27860098999206784
2.6399999999999998E-5     0.2779515948942066
2.65E-5                   0.2773022015853506
2.66E-5                   0.2766528100506632
2.67E-5                   0.2760034202753043
2.6799999999999998E-5     0.27535403224442984
2.69E-5                   0.2747055224453426
2.7E-5                    0.2741744314276303
2.7099999999999998E-5     0.27364334218744957
2.7199999999999997E-5     0.27311225471438105
2.73E-5                   0.27258116899800244
2.74E-5                   0.27205008502788924
2.7499999999999998E-5     0.271519002793614
2.76E-5                   0.2709803479914461
2.77E-5                   0.27039674484899107
2.7799999999999998E-5     0.26981314327146866
2.7899999999999997E-5     0.269229543245616
2.8E-5                    0.2686459447581672
2.81E-5                   0.2680623477958535
2.8199999999999998E-5     0.26747875234540275
2.83E-5                   0.26688916988015754
2.84E-5                   0.26628426624443047
2.8499999999999998E-5     0.26567936430485695
2.8599999999999997E-5     0.2650744640492904
2.87E-5                   0.26446956546558104
2.88E-5                   0.2638646685415761
2.8899999999999998E-5     0.2632597732651196
2.9E-5                    0.2626916518469002
2.91E-5                   0.2621747742144518
2.9199999999999998E-5     0.26165789813304996
2.9299999999999997E-5     0.26114102359267527
2.94E-5                   0.2606241505833055
2.95E-5                   0.2601072790949164
2.9599999999999998E-5     0.25959040911748144
2.97E-5                   0.25903481135488
2.98E-5                   0.25844811064076567
2.99E-5                   0.25786141126714895
2.9999999999999997E-5     0.2572747132220653
3.01E-5                   0.2566880164935475
3.02E-5                   0.25610132106962613
3.0299999999999998E-5     0.2555273557980247
3.04E-5                   0.2549743632303932
3.05E-5                   0.2544213722352623
3.06E-5                   0.2538683828023591
3.07E-5                   0.253315394921408
3.0799999999999996E-5     0.2527624085821305
3.09E-5                   0.2522153390878359
3.1E-5                    0.2516918104792107
3.11E-5                   0.25116828311910155
3.12E-5                   0.25064475699807415
3.13E-5                   0.2501212321066921
3.14E-5                   0.24959770843551735
3.15E-5                   0.24907378615422598
3.1599999999999996E-5     0.24853356611011565
3.17E-5                   0.24799334741074755
3.18E-5                   0.2474531300464635
3.1899999999999996E-5     0.2469129140076033
3.2E-5                    0.24637269928450486
3.21E-5                   0.24583248586750392
3.22E-5                   0.24530620975680242
3.23E-5                   0.24478245110163505
3.24E-5                   0.2442586936771154
3.25E-5                   0.2437349374741413
3.26E-5                   0.24321118248360876
3.2699999999999995E-5     0.24268742869641238
3.28E-5                   0.2421681272486977
3.29E-5                   0.24165101759454796
3.2999999999999996E-5     0.24113390911286686
3.31E-5                   0.2406168017950096
3.32E-5                   0.24009969563232983
3.3299999999999996E-5     0.2395825906161795
3.34E-5                   0.23906656360083245
3.35E-5                   0.23855164391806227
3.36E-5                   0.2380367254288438
3.37E-5                   0.23752180812458834
3.38E-5                   0.2370068919967059
3.39E-5                   0.23649197703660463
3.4E-5                    0.23597925767516947
3.4099999999999995E-5     0.23547128043592794
3.42E-5                   0.23496330426779968
3.43E-5                   0.23445532916272172
3.4399999999999996E-5     0.23394735511262935
3.45E-5                   0.2334393821094565
3.46E-5                   0.23293307042707379
3.4699999999999996E-5     0.23243699905560178
3.48E-5                   0.2319409287879981
3.49E-5                   0.23144485961650493
3.5E-5                    0.23094879153336312
3.51E-5                   0.23045272453081178
3.52E-5                   0.22995665860108894
3.53E-5                   0.2294608850998341
3.54E-5                   0.22896512389531698
3.5499999999999996E-5     0.22846936367146445
3.56E-5                   0.22797360442079023
3.57E-5                   0.22747784613580693
3.5799999999999996E-5     0.2269820888090256
3.59E-5                   0.2264968079943562
3.6E-5                    0.22601438440875088
3.6099999999999997E-5     0.22553196182288074
3.62E-5                   0.2250495402296336
3.63E-5                   0.22456711962189657
3.64E-5                   0.22408469999255531
3.65E-5                   0.22360279699780528
3.6599999999999995E-5     0.22312122619448452
3.67E-5                   0.22263965632129265
3.68E-5                   0.22215808737129888
3.6899999999999996E-5     0.22167651933757107
3.7E-5                    0.22119495221317587
3.71E-5                   0.2207169326249271
3.7199999999999996E-5     0.22024357727573726
3.73E-5                   0.21977022282096323
3.74E-5                   0.21929686925397796
3.75E-5                   0.21882351656815358
3.76E-5                   0.21835016475686078
3.77E-5                   0.21787802256066804
3.78E-5                   0.21740941069088776
3.79E-5                   0.21694079971034042
3.7999999999999995E-5     0.21647218961262685
3.81E-5                   0.21600358039134734
3.82E-5                   0.2155349720401008
3.8299999999999996E-5     0.21506691145187404
3.84E-5                   0.21460529627811198
3.85E-5                   0.2141436819239053
3.8599999999999996E-5     0.21368206838314616
3.87E-5                   0.21322045564972586
3.88E-5                   0.21275884371753476
3.89E-5                   0.21229723258046246
3.9E-5                    0.21184081204063976
3.9099999999999995E-5     0.21138496039584237
3.92E-5                   0.210929109571011
3.93E-5                   0.21047325956021823
3.9399999999999995E-5     0.21001741035753613
3.95E-5                   0.2095615619570356
3.96E-5                   0.20910866794369398
3.9699999999999996E-5     0.20865689807722904
3.98E-5                   0.20820512896453558
3.99E-5                   0.20775336059995578
3.9999999999999996E-5     0.20730159297783088
4.01E-5                   0.20684982609250108
4.02E-5                   0.2064046037643694
4.03E-5                   0.20596478895923548
4.04E-5                   0.20552497490612864
4.0499999999999995E-5     0.20508516159974494
4.06E-5                   0.20464534903477943
4.07E-5                   0.20420553720592644
4.0799999999999996E-5     0.20376572610787946
4.09E-5                   0.20332591573533143
4.1E-5                    0.20288610608297428
4.1099999999999996E-5     0.20244629714549953
4.12E-5                   0.20200648891759754
4.13E-5                   0.2015666813939583
4.14E-5                   0.20112897911921018
4.15E-5                   0.20070003202912207
4.1599999999999995E-5     0.20027108559832654
4.17E-5                   0.1998421398219234
4.18E-5                   0.19941319469501176
4.1899999999999995E-5     0.19898425021269023
4.2E-5                    0.19855530637005658
4.21E-5                   0.1981263631622081
4.2199999999999996E-5     0.19769742058424145
4.23E-5                   0.19726847863125255
4.24E-5                   0.19683953729833678
4.2499999999999996E-5     0.19641059658058893
4.26E-5                   0.1959816564731031
4.27E-5                   0.19556275742765292
4.28E-5                   0.19514577094693947
4.29E-5                   0.19472878511475744
4.2999999999999995E-5     0.1943117999266017
4.31E-5                   0.1938948153779661
4.32E-5                   0.19347783146434427
4.3299999999999995E-5     0.19306084818122912
4.34E-5                   0.19264386552411278
4.35E-5                   0.1922268834884872
4.3599999999999996E-5     0.19180990206984347
4.37E-5                   0.19139292126367205
4.38E-5                   0.19097594106546312
4.3899999999999996E-5     0.19056247746906116
4.4E-5                    0.19015272898126734
4.41E-5                   0.18974298106823814
4.42E-5                   0.1893332337257317
4.43E-5                   0.18892348694950536
4.4399999999999995E-5     0.1885137407353163
4.45E-5                   0.18810399507892075
4.46E-5                   0.18769424997607476
4.4699999999999996E-5     0.1872845054225339
4.48E-5                   0.18687476141405301
4.49E-5                   0.18646501794638662
4.4999999999999996E-5     0.18605527501528873
4.51E-5                   0.18564761867146345
4.52E-5                   0.18525362008310176
4.5299999999999997E-5     0.18485962203601033
4.54E-5                   0.18446562452640547
4.5499999999999995E-5     0.18407162755050316
4.56E-5                   0.1836776311045188
4.57E-5                   0.18328363518466742
4.5799999999999995E-5     0.18288963978716358
4.59E-5                   0.18249564490822148
4.6E-5                    0.18210165054405486
4.6099999999999996E-5     0.18170765669087705
4.62E-5                   0.18131366334490087
4.63E-5                   0.18091967050233887
4.6399999999999996E-5     0.18053171796137402
4.65E-5                   0.18014548200762912
4.66E-5                   0.17975924654933284
4.67E-5                   0.17937301158289112
4.68E-5                   0.17898677710470925
4.6899999999999995E-5     0.17860054311119233
4.7E-5                    0.1782143095987449
4.71E-5                   0.17782807656377136
4.7199999999999995E-5     0.1774418440026755
4.73E-5                   0.17705561191186078
4.74E-5                   0.17666938028773038
4.7499999999999996E-5     0.17628314912668708
4.76E-5                   0.17590095226949173
4.77E-5                   0.17552421408310076
4.7799999999999996E-5     0.1751474763445587
4.79E-5                   0.17477073905061358
4.8E-5                    0.1743940021980133
4.81E-5                   0.17401726578350543
4.82E-5                   0.17364052980383715
4.8299999999999995E-5     0.1732637942557553
4.84E-5                   0.17288705913600638
4.85E-5                   0.1725103244413368
4.8599999999999995E-5     0.17213359016849225
4.87E-5                   0.17175685631421847
4.88E-5                   0.17138119503009278
4.8899999999999996E-5     0.17101951971259183
4.9E-5                    0.17065784483562865
4.91E-5                   0.1702961703962003
4.9199999999999997E-5     0.16993449639130334
4.93E-5                   0.16957282281793407
4.9399999999999995E-5     0.1692111496730886
4.95E-5                   0.1688494769537625
4.96E-5                   0.1684878046569513
4.9699999999999995E-5     0.16812613277965005
4.98E-5                   0.1677644613188536
4.99E-5                   0.16740279027155652
4.9999999999999996E-5     0.16704111963475302
5.01E-5                   0.1666783622914139
5.02E-5                   0.16631517715418914
5.0299999999999996E-5     0.16595199237697728
5.04E-5                   0.16558880795692812
5.05E-5                   0.1652256238911912
5.06E-5                   0.16486244017691576
5.07E-5                   0.16449925681125097
5.0799999999999995E-5     0.16413607379134545
5.09E-5                   0.1637728911143479
5.1E-5                    0.16340970877740651
5.1099999999999995E-5     0.16304652677766943
5.12E-5                   0.1626833451122844
5.13E-5                   0.16233112987789344
5.1399999999999996E-5     0.16199810299473688
5.15E-5                   0.1616650765013772
5.16E-5                   0.1613320503953988
5.1699999999999996E-5     0.1609990246743858
5.18E-5                   0.16066599933592202
5.1899999999999994E-5     0.16033297437759114
5.2E-5                    0.15999994979697651
5.21E-5                   0.15966692559166148
5.2199999999999995E-5     0.15933390175922896
5.23E-5                   0.15900087829726176
5.24E-5                   0.15866785520334226
5.2499999999999995E-5     0.15833456016192243
5.26E-5                   0.15797403619309353
5.27E-5                   0.157613512525624
5.2799999999999996E-5     0.1572529891568456
5.29E-5                   0.15689246608408974
5.3E-5                    0.15653194330468784
5.3099999999999996E-5     0.15617142081597113
5.32E-5                   0.1558108986152704
5.3299999999999995E-5     0.15545037669991646
5.34E-5                   0.15508985506723977
5.35E-5                   0.1547293337145708
5.3599999999999995E-5     0.1543688126392396
5.37E-5                   0.15400829183857603
5.38E-5                   0.15370329825507997
5.3899999999999996E-5     0.1534274054041193
5.4E-5                    0.1531515128673541
5.41E-5                   0.15287562064345037
5.4199999999999996E-5     0.15259972873107427
5.43E-5                   0.15232383712889155
5.4399999999999994E-5     0.15204794583556808
5.4499999999999997E-5     0.1517720548497693
5.46E-5                   0.15149616417016087
5.4699999999999995E-5     0.15122893309175095
5.48E-5                   0.15096723994204964
5.49E-5                   0.15070554691632995
5.4999999999999995E-5     0.15044385401254975
5.51E-5                   0.1501821612286669
5.52E-5                   0.14992046856263902
5.5299999999999996E-5     0.1495151480595363
5.54E-5                   0.14901133312093506
5.55E-5                   0.14850751864333187
5.5599999999999996E-5     0.14800370462189644
5.57E-5                   0.14758325182451817
5.5799999999999994E-5     0.14726082197400206
5.59E-5                   0.1469383924540869
5.6E-5                    0.1466159632632884
5.6099999999999995E-5     0.14640029215002648
5.62E-5                   0.1462220651518916
5.63E-5                   0.1460438383052918
5.6399999999999995E-5     0.14571780595591857
5.65E-5                   0.14525417135892243
5.66E-5                   0.14479053724545696
5.6699999999999996E-5     0.14442285368585736
5.68E-5                   0.14411456502754105
5.69E-5                   0.1438069189173689
5.6999999999999996E-5     0.1435847016478674
5.71E-5                   0.14336248474382263
5.7199999999999994E-5     0.1430679307342306
5.73E-5                   0.14266362820083756
5.74E-5                   0.14225932590975093
5.7499999999999995E-5     0.1419650443492687
5.76E-5                   0.1417005262535064
5.77E-5                   0.14143076790164757
5.7799999999999995E-5     0.1411366236910714
5.79E-5                   0.14084247987628692
5.8E-5                    0.14051795348715748
5.8099999999999996E-5     0.14017019519614532
5.82E-5                   0.13982243696567218
5.8299999999999994E-5     0.13955972552565862
5.8399999999999997E-5     0.13930088280125524
5.85E-5                   0.1390200526347847
5.8599999999999995E-5     0.13869771691638727
5.87E-5                   0.1383753813693921
5.88E-5                   0.13806821373392578
5.8899999999999995E-5     0.13776648394689603
5.9E-5                    0.13746770290424362
5.91E-5                   0.13718939126972612
5.9199999999999996E-5     0.13691107993054988
5.93E-5                   0.13661353290500586
5.94E-5                   0.13629792252194697
5.9499999999999996E-5     0.1359823122482573
5.96E-5                   0.13569896089590874
5.9699999999999994E-5     0.13541897553940754
5.98E-5                   0.13513448159343736
5.99E-5                   0.13483922937895254
5.9999999999999995E-5     0.13454397731204878
6.01E-5                   0.13424955160039587
6.02E-5                   0.13395550579659038
6.0299999999999995E-5     0.13366248386294882
6.04E-5                   0.1333820980520308
6.05E-5                   0.13310171245373317
6.0599999999999996E-5     0.13281438771708734
6.07E-5                   0.13251907101995772
6.08E-5                   0.1322237544845588
6.0899999999999996E-5     0.13194348793399324
6.1E-5                    0.13166578314760147
6.11E-5                   0.13138543372244801
6.12E-5                   0.13109690559637688
6.13E-5                   0.13080837762544928
6.14E-5                   0.1305256018912179
6.149999999999999E-5      0.1302461446188955
6.159999999999999E-5      0.12996667809634052
6.17E-5                   0.12968682662212347
6.18E-5                   0.1294069753177793
6.19E-5                   0.12912644811137325
6.2E-5                    0.1288449632459482
6.209999999999999E-5      0.12856347856196182
6.22E-5                   0.12828913358115485
6.23E-5                   0.12801653389185766
6.24E-5                   0.12774237753541104
6.25E-5                   0.12746172776778275
6.26E-5                   0.1271810781630007
6.269999999999999E-5      0.12690706319417042
6.28E-5                   0.12663779005687636
6.29E-5                   0.12636851710227262
6.3E-5                    0.1260950174226458
6.31E-5                   0.125821400606442
6.319999999999999E-5      0.1255477839520699
6.33E-5                   0.1252741674582957
6.34E-5                   0.1250005511238861
6.35E-5                   0.12473160927854408
6.36E-5                   0.1244642040918443
6.37E-5                   0.12419679906863856
6.379999999999999E-5      0.12392939420773637
6.39E-5                   0.12366198950794724
6.4E-5                    0.12339548034844963
6.41E-5                   0.12312975830756118
6.42E-5                   0.12286403641908644
6.429999999999999E-5      0.12259831468187203
6.44E-5                   0.12233259309476432
6.45E-5                   0.12206767418743875
6.46E-5                   0.12180452648979845
6.47E-5                   0.12154137894694214
6.48E-5                   0.12127823155775473
6.489999999999999E-5      0.12101508432112117
6.5E-5                    0.12075231194569469
6.51E-5                   0.12049326265130184