% Model:              20230225_JW_4_00.mph
% Version:            COMSOL 5.6.0.401
% Date:               Feb 25 2023, 20:09
% Dimension:          1
% Nodes:              2001
% Expressions:        1
% Description:        点图
% X                       Height
0                         3.50213765137231
1.0E-7                    3.5014814660680056
2.0E-7                    3.5008252892003373
3.0E-7                    3.4999205095920405
4.0E-7                    3.5018153720250504
5.0E-7                    3.508046505914033
6.0E-7                    3.5235704774583785
7.0E-7                    3.5412031822945833
8.0E-7                    3.556781309992258
9.0E-7                    3.5668629772332143
1.0E-6                    3.573001998536589
1.1E-6                    3.5806909419859325
1.2E-6                    3.588881742744052
1.2999999999999998E-6     3.596313147236804
1.4E-6                    3.6020970047056444
1.5E-6                    3.607928950970152
1.6E-6                    3.61104269824181
1.6999999999999998E-6     3.6146157108660257
1.8E-6                    3.6185641388045333
1.9E-6                    3.6194775615305814
2.0E-6                    3.6215248714598145
2.1E-6                    3.6232411480850897
2.2E-6                    3.6227101884251
2.3E-6                    3.6233009222658756
2.4E-6                    3.622553277373476
2.4999999999999998E-6     3.6216098691794847
2.5999999999999997E-6     3.6202317239153348
2.7E-6                    3.6183906933450096
2.8E-6                    3.616420126715734
2.8999999999999998E-6     3.61374354012133
3.0E-6                    3.611036827289227
3.1E-6                    3.6078720137114044
3.2E-6                    3.604398881092755
3.2999999999999997E-6     3.6008950170923666
3.3999999999999996E-6     3.5968977572760794
3.5E-6                    3.592789113231094
3.6E-6                    3.588409564288272
3.6999999999999997E-6     3.5838871563131947
3.8E-6                    3.579244533050621
3.9E-6                    3.57428866631182
4.0E-6                    3.5692468689025363
4.1E-6                    3.5640397307239193
4.2E-6                    3.558726539852764
4.2999999999999995E-6     3.553264842372841
4.4E-6                    3.547662579437817
4.5E-6                    3.5420023564335685
4.6E-6                    3.5361863164831213
4.7E-6                    3.5303009442832907
4.8E-6                    3.5242463569670237
4.9E-6                    3.51819183300173
4.9999999999999996E-6     3.5121373716440525
5.0999999999999995E-6     3.5058972700309567
5.199999999999999E-6      3.4996301696305157
5.3E-6                    3.4933631316846676
5.4E-6                    3.4870189031961645
5.5E-6                    3.4805823005655316
5.6E-6                    3.474145758820835
5.7E-6                    3.4677040033238997
5.7999999999999995E-6     3.4611277424780225
5.899999999999999E-6      3.4545515421278763
6.0E-6                    3.4479754015189195
6.1E-6                    3.4413437013771166
6.2E-6                    3.4346779951887223
6.3E-6                    3.4280123469551165
6.4E-6                    3.4213351804367016
6.5E-6                    3.4146125178019395
6.5999999999999995E-6     3.4078899127508673
6.699999999999999E-6      3.4011673645404557
6.799999999999999E-6      3.3944123388514718
6.9E-6                    3.387648462709942
7.0E-6                    3.3808846421274548
7.1E-6                    3.374113182664402
7.2E-6                    3.367328538073746
7.2999999999999996E-6     3.3605439481423085
7.3999999999999995E-6     3.3537594121464793
7.499999999999999E-6      3.3469720079802134
7.6E-6                    3.3401845038176825
7.699999999999999E-6      3.333397052803236
7.8E-6                    3.3266080989653917
7.899999999999999E-6      3.3198178320198632
8.0E-6                    3.313027617354092
8.1E-6                    3.3062374542741413
8.2E-6                    3.2994473420837727
8.3E-6                    3.292657280084451
8.4E-6                    3.2858672675753597
8.5E-6                    3.2791272891100762
8.599999999999999E-6      3.27240905612126
8.7E-6                    3.265690873391373
8.8E-6                    3.258972740248558
8.9E-6                    3.252254656018795
9.0E-6                    3.2455366200259097
9.1E-6                    3.238818631591597
9.2E-6                    3.23214861784505
9.299999999999999E-6      3.2254863101457443
9.4E-6                    3.21882405079033
9.499999999999999E-6      3.212161839149664
9.6E-6                    3.205499674592631
9.7E-6                    3.1988375564861506
9.8E-6                    3.1921754841951886
9.9E-6                    3.185513457082769
9.999999999999999E-6      3.178851474509984
1.01E-5                   3.1721895358360075
1.0199999999999999E-5     3.1655276404181034
1.03E-5                   3.1588657876116364
1.0399999999999999E-5     3.1522039767700876
1.05E-5                   3.145574592544041
1.06E-5                   3.1390814930035185
1.07E-5                   3.1325884389097003
1.08E-5                   3.1260954296819183
1.0899999999999999E-5     3.119602464737781
1.1E-5                    3.1131095434931826
1.1099999999999999E-5     3.106616665362308
1.12E-5                   3.100123829757647
1.13E-5                   3.0936310360900015
1.14E-5                   3.0871382837684966
1.15E-5                   3.0806455722005883
1.1599999999999999E-5     3.074152900792077
1.17E-5                   3.0676602689471126
1.1799999999999999E-5     3.0611676760682065
1.19E-5                   3.054772057727904
1.2E-5                    3.048465293600872
1.21E-5                   3.0421585709426844
1.22E-5                   3.0358518892377018
1.2299999999999999E-5     3.0295452479688585
1.24E-5                   3.0232386466176684
1.2499999999999999E-5     3.0169320846642336
1.26E-5                   3.0106255615872572
1.2699999999999999E-5     3.0043190768640433
1.28E-5                   2.9980126299705105
1.29E-5                   2.991706220381197
1.3E-5                    2.985399847569271
1.31E-5                   2.979093511006535
1.3199999999999999E-5     2.9727872101634385
1.33E-5                   2.9665387257162283
1.3399999999999999E-5     2.960300341689733
1.35E-5                   2.954061994950877
1.3599999999999999E-5     2.947823684981221
1.37E-5                   2.9415854112609954
1.38E-5                   2.9353471732691094
1.3899999999999999E-5     2.929108970483156
1.4E-5                    2.922870802379419
1.4099999999999999E-5     2.916632668432884
1.42E-5                   2.910394568117245
1.4299999999999999E-5     2.9041565009049117
1.44E-5                   2.897918466267019
1.45E-5                   2.8916804636734303
1.4599999999999999E-5     2.8854630029499937
1.47E-5                   2.879338077023438
1.4799999999999999E-5     2.8732131852106884
1.49E-5                   2.867088327075701
1.4999999999999999E-5     2.860963502181369
1.51E-5                   2.8548387100895245
1.52E-5                   2.8487139503609455
1.53E-5                   2.8425892225553673
1.5399999999999998E-5     2.8364645262314805
1.55E-5                   2.830339860946939
1.56E-5                   2.824215226258373
1.57E-5                   2.8180906217213844
1.5799999999999998E-5     2.811966046890559
1.59E-5                   2.8062639764661985
1.6E-5                    2.8006204658175915
1.61E-5                   2.7949769853307
1.62E-5                   2.7893335346139616
1.63E-5                   2.7836901132749756
1.64E-5                   2.778046720920495
1.6499999999999998E-5     2.772403357156443
1.66E-5                   2.766760021587909
1.67E-5                   2.7611167138191566
1.68E-5                   2.755473433453633
1.69E-5                   2.749828884984651
1.7E-5                    2.744177987250668
1.71E-5                   2.7385271210708537
1.7199999999999998E-5     2.7328762860308253
1.73E-5                   2.727225481715308
1.74E-5                   2.7215747077081445
1.75E-5                   2.7159239635922976
1.76E-5                   2.7102732489498544
1.77E-5                   2.704622563362034
1.78E-5                   2.6989719064091933
1.7899999999999998E-5     2.6932349687549966
1.8E-5                    2.6874699307245487
1.81E-5                   2.68170491779769
1.82E-5                   2.675939929613441
1.8299999999999998E-5     2.670174965810096
1.84E-5                   2.664410026025227
1.85E-5                   2.658645109895693
1.8599999999999998E-5     2.6528802170576355
1.87E-5                   2.6471989768815063
1.88E-5                   2.6417316137375058
1.89E-5                   2.6362642776183978
1.8999999999999998E-5     2.6307969681674575
1.91E-5                   2.6253296850272685
1.92E-5                   2.6198624278397245
1.9299999999999998E-5     2.6143951962460337
1.94E-5                   2.608927989886723
1.95E-5                   2.6034608084016404
1.96E-5                   2.597972213844749
1.9699999999999998E-5     2.5924785509066472
1.98E-5                   2.586984912223853
1.99E-5                   2.5814912974569193
1.9999999999999998E-5     2.5759977062657615
2.01E-5                   2.570504138309668
2.02E-5                   2.5650105932472944
2.03E-5                   2.5595170707366766
2.0399999999999998E-5     2.554069041306863
2.05E-5                   2.548711320289618
2.06E-5                   2.543353621728015
2.07E-5                   2.5379959453107968
2.0799999999999997E-5     2.5326382907261586
2.09E-5                   2.527280657661746
2.1E-5                    2.5219230458046624
2.1099999999999998E-5     2.516565454841472
2.12E-5                   2.511207884458199
2.13E-5                   2.505932653387531
2.14E-5                   2.5006706403984333
2.1499999999999997E-5     2.4954086503478083
2.16E-5                   2.4901466829218815
2.17E-5                   2.4848847378063317
2.1799999999999998E-5     2.4796228146863
2.19E-5                   2.4743609132463864
2.2E-5                    2.4690990331706564
2.21E-5                   2.463843680107125
2.2199999999999998E-5     2.458598576183785
2.23E-5                   2.4533534916212303
2.24E-5                   2.4481084261448363
2.2499999999999998E-5     2.4428633794795314
2.26E-5                   2.4376183513497995
2.27E-5                   2.4323733414796767
2.28E-5                   2.427128349592761
2.2899999999999998E-5     2.4218833754122104
2.3E-5                    2.4168443909933934
2.31E-5                   2.4118243969804984
2.3199999999999998E-5     2.406804423844184
2.33E-5                   2.4017844713061356
2.34E-5                   2.396764539087601
2.35E-5                   2.391744626909384
2.3599999999999998E-5     2.386724734491857
2.37E-5                   2.381704861554957
2.38E-5                   2.3766525957608065
2.3899999999999998E-5     2.371559525075911
2.4E-5                    2.3664664713266625
2.41E-5                   2.3613734342563197
2.42E-5                   2.3562804136077538
2.4299999999999998E-5     2.3511874091234506
2.44E-5                   2.3460944205455134
2.45E-5                   2.3410014476156706
2.4599999999999998E-5     2.335908490075265
2.4699999999999997E-5     2.3310382834958197
2.48E-5                   2.3261751067163576
2.49E-5                   2.32131194932947
2.4999999999999998E-5     2.3164488110945944
2.51E-5                   2.311585691770816
2.52E-5                   2.306722591116866
2.53E-5                   2.3018595088911207
2.5399999999999997E-5     2.2969964448516076
2.55E-5                   2.2921070215540005
2.56E-5                   2.2871908541331183
2.5699999999999998E-5     2.2822747020561494
2.58E-5                   2.277358565069514
2.59E-5                   2.272442442919278
2.6E-5                    2.2675263353511594
2.6099999999999997E-5     2.2626102421105285
2.62E-5                   2.25769416294241
2.63E-5                   2.252810476788597
2.6399999999999998E-5     2.2479316170494164
2.65E-5                   2.2430527715445705
2.66E-5                   2.2381739400843226
2.67E-5                   2.2332951224786797
2.6799999999999998E-5     2.228416318537393
2.69E-5                   2.2235406819910413
2.7E-5                    2.219087562693084
2.7099999999999998E-5     2.214634460070436
2.7199999999999997E-5     2.2101813738997342
2.73E-5                   2.2057283039573297
2.74E-5                   2.201275250019288
2.7499999999999998E-5     2.196822211861393
2.76E-5                   2.1923274873154357
2.77E-5                   2.1875852954657042
2.7799999999999998E-5     2.182843117655029
2.7899999999999997E-5     2.178100953673371
2.8E-5                    2.173358803310422
2.81E-5                   2.1686166663556024
2.8199999999999998E-5     2.163874542598067
2.83E-5                   2.1591706613472987
2.84E-5                   2.1545646109450374
2.8499999999999998E-5     2.1499585735480036
2.8599999999999997E-5     2.1453525489800063
2.87E-5                   2.1407465370646395
2.88E-5                   2.1361405376252875
2.8899999999999998E-5     2.13153455048512
2.9E-5                    2.1270198044834228
2.91E-5                   2.1226321999023137
2.9199999999999998E-5     2.11824460926772
2.9299999999999997E-5     2.1138570323767047
2.94E-5                   2.1094694690260947
2.95E-5                   2.1050819190124783
2.9599999999999998E-5     2.10069438213221
2.97E-5                   2.0962041878338367
2.98E-5                   2.091631549126395
2.99E-5                   2.0870589225315954
2.9999999999999997E-5     2.0824863078766147
3.01E-5                   2.0779137049884255
3.02E-5                   2.0733411136937985
3.0299999999999998E-5     2.0688359554982183
3.04E-5                   2.0644418883448092
3.05E-5                   2.060047832793897
3.06E-5                   2.055653788676198
3.07E-5                   2.051259755822244
3.0799999999999996E-5     2.04686573406238
3.09E-5                   2.0424965231883796
3.1E-5                    2.0382260133616343
3.11E-5                   2.0339555154687337
3.12E-5                   2.0296850293450674
3.13E-5                   2.025414554825844
3.14E-5                   2.0211440917460957
3.15E-5                   2.016872888928999
3.1599999999999996E-5     2.012571081706816
3.17E-5                   2.008269285673533
3.18E-5                   2.003967500670189
3.1899999999999996E-5     1.9996657265376547
3.2E-5                    1.9953639631166347
3.21E-5                   1.9910622102476658
3.22E-5                   1.9868321726044402
3.23E-5                   1.9826150918407777
3.24E-5                   1.9783980211608532
3.25E-5                   1.9741809604141183
3.26E-5                   1.9699639094498735
3.2699999999999995E-5     1.965746868117269
3.28E-5                   1.9615718770858954
3.29E-5                   1.9574175868689623
3.2999999999999996E-5     1.9532633073642063
3.31E-5                   1.9491090384239613
3.32E-5                   1.9449547799004103
3.3299999999999996E-5     1.9408005316455925
3.34E-5                   1.9366520944058603
3.35E-5                   1.9325096254252052
3.36E-5                   1.9283671657837032
3.37E-5                   1.9242247153405845
3.38E-5                   1.9200822739549461
3.39E-5                   1.9159398414857503
3.4E-5                    1.9118244204333874
3.4099999999999995E-5     1.9077673471838383
3.42E-5                   1.903710283644878
3.43E-5                   1.8996532296821385
3.4399999999999996E-5     1.8955961851611234
3.45E-5                   1.8915391499472116
3.46E-5                   1.8874879712891444
3.4699999999999996E-5     1.8834728634710336
3.48E-5                   1.8794577645916448
3.49E-5                   1.8754426745201762
3.5E-5                    1.8714275931257083
3.51E-5                   1.8674125202771992
3.52E-5                   1.8633974558434923
3.53E-5                   1.8594367626427486
3.54E-5                   1.8554781878771738
3.5499999999999996E-5     1.8515196217049124
3.56E-5                   1.8475610640025086
3.57E-5                   1.8436025146463995
3.5799999999999996E-5     1.839643973512913
3.59E-5                   1.8357268486399247
3.6E-5                    1.8318210224273195
3.6099999999999997E-5     1.8279152046108247
3.62E-5                   1.8240093950690004
3.63E-5                   1.820103593680303
3.64E-5                   1.816197800323083
3.65E-5                   1.8123172906388598
3.6599999999999995E-5     1.8084530253536457
3.67E-5                   1.8045887678659758
3.68E-5                   1.8007245180607532
3.6899999999999996E-5     1.7968602758227832
3.7E-5                    1.7929960410367751
3.71E-5                   1.7891537786418543
3.7199999999999996E-5     1.7853404050605373
3.73E-5                   1.7815270393455247
3.74E-5                   1.7777136813854417
3.75E-5                   1.7739003310688237
3.76E-5                   1.770086988284112
3.77E-5                   1.7662850469062275
3.78E-5                   1.7625163823812662
3.79E-5                   1.7587477251050252
3.7999999999999995E-5     1.754979074971197
3.81E-5                   1.7512104318733899
3.82E-5                   1.74744179570513
3.8299999999999996E-5     1.7436774308258802
3.84E-5                   1.7399633247862965
3.85E-5                   1.736249225995906
3.8599999999999996E-5     1.732535134351646
3.87E-5                   1.728821049750375
3.88E-5                   1.7251069720888728
3.89E-5                   1.721392901263839
3.9E-5                    1.7177118243952652
3.9099999999999995E-5     1.7140343650761154
3.92E-5                   1.7103569124678943
3.93E-5                   1.7066794664719744
3.9399999999999995E-5     1.7030020269896557
3.95E-5                   1.699324593922164
3.96E-5                   1.6956879759181465
3.9699999999999996E-5     1.6920668858592838
3.98E-5                   1.6884458023055715
3.99E-5                   1.684824725162677
3.9999999999999996E-5     1.6812036543361983
4.01E-5                   1.677582589731667
4.02E-5                   1.6740007779271373
4.03E-5                   1.6704513996437649
4.04E-5                   1.6669020276983444
4.0499999999999995E-5     1.6633526620017571
4.06E-5                   1.6598033024648184
4.07E-5                   1.656253948998284
4.0799999999999996E-5     1.6527046015128453
4.09E-5                   1.6491552599191315
4.1E-5                    1.6456059241277106
4.1099999999999996E-5     1.64205659404909
4.12E-5                   1.6385072695937148
4.13E-5                   1.63495795067197
4.14E-5                   1.6314265463736541
4.15E-5                   1.627969646451029
4.1599999999999995E-5     1.6245127524724174
4.17E-5                   1.6210558643556887
4.18E-5                   1.6175989820186558
4.1899999999999995E-5     1.6141421053790788
4.2E-5                    1.6106852343546605
4.21E-5                   1.6072283688630504
4.2199999999999996E-5     1.6037715088218447
4.23E-5                   1.6003146541485846
4.24E-5                   1.5968578047607582
4.2499999999999996E-5     1.5934009605758008
4.26E-5                   1.5899441215110945
4.27E-5                   1.5865616618266494
4.28E-5                   1.5831933701468996
4.29E-5                   1.579825083995163
4.2999999999999995E-5     1.5764568032952568
4.31E-5                   1.5730885279709494
4.32E-5                   1.569720257945963
4.3299999999999995E-5     1.5663519931439684
4.34E-5                   1.5629837334885914
4.35E-5                   1.5596154789034091
4.3599999999999996E-5     1.5562472293119516
4.37E-5                   1.552878984637701
4.38E-5                   1.5495107448040943
4.3899999999999996E-5     1.5461769300945958
4.4E-5                    1.5428794842148117
4.41E-5                   1.5395820433322698
4.42E-5                   1.5362846073768657
4.43E-5                   1.532987176278452
4.4399999999999995E-5     1.5296897499668396
4.45E-5                   1.5263923283717968
4.46E-5                   1.5230949114230525
4.4699999999999996E-5     1.519797499050292
4.48E-5                   1.5165000911831612
4.49E-5                   1.5132026877512637
4.4999999999999996E-5     1.5099052886841644
4.51E-5                   1.5066230895224164
4.52E-5                   1.5034403792410782
4.5299999999999997E-5     1.500257673703668
4.54E-5                   1.497074972845791
4.5499999999999995E-5     1.4938922766030165
4.56E-5                   1.4907095849108747
4.57E-5                   1.487526897704861
4.5799999999999995E-5     1.4843442149204351
4.59E-5                   1.4811615364930202
4.6E-5                    1.4779788623580026
4.6099999999999996E-5     1.4747961924507353
4.62E-5                   1.4716135267065344
4.63E-5                   1.4684308650606812
4.6399999999999996E-5     1.465292454105565
4.65E-5                   1.4621666192218532
4.66E-5                   1.4590407885869552
4.67E-5                   1.45591496214055
4.68E-5                   1.4527891398222865
4.6899999999999995E-5     1.4496633215717802
4.7E-5                    1.4465375073286142
4.71E-5                   1.4434116970323403
4.7199999999999995E-5     1.440285890622479
4.73E-5                   1.4371600880385176
4.74E-5                   1.434034289219914
4.7499999999999996E-5     1.430908494106094
4.76E-5                   1.427824782444406
4.77E-5                   1.4247980131196452
4.7799999999999996E-5     1.4217712477725317
4.79E-5                   1.4187444863487757
4.8E-5                    1.415717728794058
4.81E-5                   1.4126909750540328
4.82E-5                   1.4096642250743263
4.8299999999999995E-5     1.406637478800538
4.84E-5                   1.4036107361782402
4.85E-5                   1.4005839971529788
4.8599999999999995E-5     1.3975572616702727
4.87E-5                   1.394530529675613
4.88E-5                   1.391509095118619
4.8899999999999996E-5     1.3885567208984126
4.9E-5                    1.385604350451068
4.91E-5                   1.382651983724405
4.9199999999999997E-5     1.3796996206662182
4.93E-5                   1.376747261224277
4.9399999999999995E-5     1.3737949053463252
4.95E-5                   1.3708425529800807
4.96E-5                   1.3678902040732384
4.9699999999999995E-5     1.3649378585734677
4.98E-5                   1.3619855164284134
4.99E-5                   1.359033177585696
4.9999999999999996E-5     1.3560808419929118
5.01E-5                   1.3531719880874524
5.02E-5                   1.3502802614615055
5.0299999999999996E-5     1.3473885379580743
5.04E-5                   1.34449681753209
5.05E-5                   1.3416051001384641
5.06E-5                   1.3387133857320876
5.07E-5                   1.335821674267831
5.0799999999999995E-5     1.332929965700547
5.09E-5                   1.3300382599850655
5.1E-5                    1.327146557076199
5.1099999999999995E-5     1.324254856928741
5.12E-5                   1.3213631594974624
5.13E-5                   1.3185182763116499
5.1399999999999996E-5     1.3157553052333915
5.15E-5                   1.3129923378056305
5.16E-5                   1.3102293739815407
5.1699999999999996E-5     1.307466413714274
5.18E-5                   1.3047034569569627
5.1899999999999994E-5     1.3019405036627179
5.2E-5                    1.2991775537846295
5.21E-5                   1.2964146072757685
5.2199999999999995E-5     1.293651664089185
5.23E-5                   1.2908887241779092
5.24E-5                   1.2881257874949503
5.2499999999999995E-5     1.2853624217074042
5.26E-5                   1.2825558331816667
5.27E-5                   1.2797492466804565
5.2799999999999996E-5     1.2769426621695676
5.29E-5                   1.2741360796147816
5.3E-5                    1.2713294989818649
5.3099999999999996E-5     1.268522920236573
5.32E-5                   1.2657163433446466
5.3299999999999995E-5     1.262909768271813
5.34E-5                   1.2601031949837875
5.35E-5                   1.2572966234462726
5.3599999999999995E-5     1.2544900536249564
5.37E-5                   1.2516834854855154
5.38E-5                   1.2492105832354305
5.3899999999999996E-5     1.2469125500801004
5.4E-5                    1.2446145203713685
5.41E-5                   1.2423164940749694
5.4199999999999996E-5     1.2400184711566233
5.43E-5                   1.2377204515820392
5.4399999999999994E-5     1.2354224353169134
5.4499999999999997E-5     1.233124422326928
5.46E-5                   1.230826412577754
5.4699999999999995E-5     1.2283036039212099
5.48E-5                   1.2256370330559228
5.49E-5                   1.22297046458117
5.4999999999999995E-5     1.2203038984368686
5.51E-5                   1.2176373345629126
5.52E-5                   1.214970772899175
5.5299999999999996E-5     1.2119297749215474
5.54E-5                   1.2086320024666815
5.55E-5                   1.2053342317248932
5.5599999999999996E-5     1.2020364626746614
5.57E-5                   1.1991674309284084
5.5799999999999994E-5     1.1968025440716994
5.59E-5                   1.1944376587619459
5.6E-5                    1.1920727749664048
5.6099999999999995E-5     1.1896751349099934
5.62E-5                   1.1872660101189083
5.63E-5                   1.1848568903846313
5.6399999999999995E-5     1.1821847404043901
5.65E-5                   1.1792677137411445
5.66E-5                   1.1763506871752396
5.6699999999999996E-5     1.1737255288234854
5.68E-5                   1.171281043812328
5.69E-5                   1.1688364691379582
5.6999999999999996E-5     1.1663796641099855
5.71E-5                   1.1639228631415812
5.7199999999999994E-5     1.161408179451669
5.73E-5                   1.1588056722370115
5.74E-5                   1.1562031646476234
5.7499999999999995E-5     1.1537318600768747
5.76E-5                   1.1512960534010346
5.77E-5                   1.1488508256735734
5.7799999999999995E-5     1.1463617379151303
5.79E-5                   1.1438726503756693
5.8E-5                    1.1413895822023568
5.8099999999999996E-5     1.1389111186854903
5.82E-5                   1.1364326578454838
5.8299999999999994E-5     1.1340097595446976
5.8399999999999997E-5     1.1315893904878171
5.85E-5                   1.1291587581063327
5.8599999999999995E-5     1.1267087494134918
5.87E-5                   1.1242587417334176
5.88E-5                   1.1218358554608683
5.8899999999999995E-5     1.119422694797346
5.9E-5                    1.1170112409816035
5.91E-5                   1.114611615867754
5.9199999999999996E-5     1.1122119910963775
5.93E-5                   1.109814611040396
5.94E-5                   1.1074193409492528
5.9499999999999996E-5     1.1050240738598722
5.96E-5                   1.1026482971627267
5.9699999999999994E-5     1.100274554734497
5.98E-5                   1.097903914293059
5.99E-5                   1.0955406747258698
5.9999999999999995E-5     1.0931774370932024
6.01E-5                   1.090824353063354
6.02E-5                   1.0884759364256924
6.0299999999999995E-5     1.0861281939794452
6.04E-5                   1.0837887505139179
6.05E-5                   1.081449308060722
6.0599999999999996E-5     1.079119842708513
6.07E-5                   1.0768018690113927
6.08E-5                   1.074483897722573
6.0899999999999996E-5     1.0721685345162273
6.1E-5                    1.0698536158518352
6.11E-5                   1.0675437982296465
6.12E-5                   1.0652497536662076
6.13E-5                   1.0629557111477705
6.14E-5                   1.0606678472470592
6.149999999999999E-5      1.058383547989393
6.159999999999999E-5      1.0560995041002101
6.17E-5                   1.0538258052890281
6.18E-5                   1.0515521079855152
6.19E-5                   1.0492862331043085
6.2E-5                    1.047031440340513
6.209999999999999E-5      1.0447766492672406
6.22E-5                   1.0425254456626012
6.23E-5                   1.0402751198017308
6.24E-5                   1.0380288184374773
6.25E-5                   1.0357992996690895
6.26E-5                   1.0335697826284012
6.269999999999999E-5      1.0313434375809567
6.28E-5                   1.0291193596508783
6.29E-5                   1.026895282918271
6.3E-5                    1.0246922716165645
6.31E-5                   1.0224898463571577
6.319999999999999E-5      1.0202874225746303
6.33E-5                   1.018085000248043
6.34E-5                   1.0158825793564523
6.35E-5                   1.0136995097899877
6.36E-5                   1.0115228020609488
6.37E-5                   1.0093460956513203
6.379999999999999E-5      1.0071693905407648
6.39E-5                   1.0049926867089405
6.4E-5                    1.0028282612166308
6.41E-5                   1.0006746275759701
6.42E-5                   0.9985209952772742
6.429999999999999E-5      0.9963673643009401
6.44E-5                   0.9942137346273585
6.45E-5                   0.9920673281984023
6.46E-5                   0.9899368607693924
6.47E-5                   0.9878063946275536
6.48E-5                   0.9856759297539212
6.489999999999999E-5      0.983545466129528
6.5E-5                    0.9814172904024422
6.51E-5                   0.9793118351169147
6.52E-5                   0.9772063810606041
6.53E-5                   0.9751009282151817
6.539999999999999E-5      0.9729954765623133
6.549999999999999E-5      0.9708900260836607
6.56E-5                   0.9688045412251873
6.57E-5                   0.9667220129478881
6.58E-5                   0.9646394858864734
6.59E-5                   0.9625569600232022
6.599999999999999E-5      0.9604744353403305
6.61E-5                   0.9584065876155285
6.62E-5                   0.9563466201872235
6.63E-5                   0.9542866538831482
6.64E-5                   0.9522266886861891
6.65E-5                   0.950166724579229