% Model:              20230225_JW_4_35.mph
% Version:            COMSOL 5.6.0.401
% Date:               Feb 25 2023, 21:04
% Dimension:          1
% Nodes:              1001
% Expressions:        1
% Description:        点图
% X                       Height
0                         0.14100834788015187
1.0E-7                    0.14156349369327925
2.0E-7                    0.162494743834879
3.0E-7                    0.15671983829876068
4.0E-7                    0.16465274785219447
5.0E-7                    0.16538198917145708
6.0E-7                    0.16291503943369567
7.0E-7                    0.16072830773274946
8.0E-7                    0.15603237718564916
9.0E-7                    0.15168790006027172
1.0E-6                    0.1469736963529956
1.1E-6                    0.14260807511714038
1.2E-6                    0.13831173727519377
1.2999999999999998E-6     0.13407767272611124
1.4E-6                    0.12995716962161566
1.5E-6                    0.1259654871310134
1.6E-6                    0.12205762637220958
1.6999999999999998E-6     0.11839500628891231
1.8E-6                    0.11474081842502229
1.9E-6                    0.11122071337816097
2.0E-6                    0.10784717746661655
2.1E-6                    0.10452206047724812
2.2E-6                    0.10128737284737949
2.3E-6                    0.09823290624796997
2.4E-6                    0.09519910084908721
2.4999999999999998E-6     0.09226649580702309
2.5999999999999997E-6     0.08936744369925101
2.7E-6                    0.0866840184622855
2.8E-6                    0.08382696681244435
2.8999999999999998E-6     0.08124995127015057
3.0E-6                    0.0791935221542754
3.1E-6                    0.07616521045906058
3.2E-6                    0.0738716540862149
3.2999999999999997E-6     0.07200004143126862
3.3999999999999996E-6     0.06995563671421091
3.5E-6                    0.06770454446636993
3.6E-6                    0.06559486084864309
3.6999999999999997E-6     0.0636480770418599
3.8E-6                    0.06162935390315485
3.9E-6                    0.05981872899742385
4.0E-6                    0.057972972639202404
4.1E-6                    0.056200462806791106
4.2E-6                    0.05447936746080848
4.2999999999999995E-6     0.05279401499454191
4.4E-6                    0.051189371419812384
4.5E-6                    0.04962423802805244
4.6E-6                    0.04810085152834675
4.7E-6                    0.04663823433388789
4.8E-6                    0.0452079357756221
4.9E-6                    0.043832851638813404
4.9999999999999996E-6     0.04249916864616112
5.0999999999999995E-6     0.04119531727076057
5.199999999999999E-6      0.03994296216971776
5.3E-6                    0.03872741421475662
5.4E-6                    0.0375424178644131
5.5E-6                    0.036394674931232496
5.6E-6                    0.0352851141677047
5.7E-6                    0.03420479403500093
5.7999999999999995E-6     0.033160995575073314
5.899999999999999E-6      0.03215330358353074
6.0E-6                    0.031170398885532417
6.1E-6                    0.030212950899789825
6.2E-6                    0.02929744898177198
6.3E-6                    0.028395034291149503
6.4E-6                    0.027534051731111817
6.5E-6                    0.026640816012594534
6.5999999999999995E-6     0.02588000453411501
6.699999999999999E-6      0.025086044729631118
6.799999999999999E-6      0.024344097717799183
6.9E-6                    0.02357824025969349
7.0E-6                    0.02285004186793319
7.1E-6                    0.022170283756480707
7.2E-6                    0.021477708365209368
7.2999999999999996E-6     0.020831512713860436
7.3999999999999995E-6     0.02019961006775176
7.499999999999999E-6      0.01958059052208237
7.6E-6                    0.018981756289754608
7.699999999999999E-6      0.01840490160804717
7.8E-6                    0.017841257924243042
7.899999999999999E-6      0.017297779413257778
8.0E-6                    0.016770476584235892
8.1E-6                    0.016259419773973372
8.2E-6                    0.01576373884731306
8.3E-6                    0.015283468687907236
8.4E-6                    0.01481558483221529
8.5E-6                    0.014363607386366438
8.599999999999999E-6      0.013924634852598086
8.7E-6                    0.013499580565510842
8.8E-6                    0.013089165839843011
8.9E-6                    0.012689917429961653
9.0E-6                    0.012302801786433084
9.1E-6                    0.011927426021058663
9.2E-6                    0.011564715603459615
9.299999999999999E-6      0.011215829532656674
9.4E-6                    0.010866969349643096
9.499999999999999E-6      0.010541574041533051
9.6E-6                    0.010216178782282266
9.7E-6                    0.009907006496342638
9.8E-6                    0.009604379169445992
9.9E-6                    0.009310319358686705
9.999999999999999E-6      0.009027899454633411
1.01E-5                   0.008748152850612468
1.0199999999999999E-5     0.008485473938488051
1.03E-5                   0.008222795056731805
1.0399999999999999E-5     0.00797516386516442
1.05E-5                   0.0077302538886151574
1.06E-5                   0.007494844173357711
1.07E-5                   0.007266950703393276
1.08E-5                   0.007043160186179119
1.0899999999999999E-5     0.006830477669394838
1.1E-5                    0.006617795172623144
1.1099999999999999E-5     0.006419920356713937
1.12E-5                   0.006222329648240884
1.13E-5                   0.006033732851279517
1.14E-5                   0.005849127577028619
1.15E-5                   0.005669783985790485
1.1599999999999999E-5     0.0054982008974842535
1.17E-5                   0.005327965887847776
1.1799999999999999E-5     0.00516805490660416
1.19E-5                   0.005008143932719071
1.2E-5                    0.004856995147010751
1.21E-5                   0.004707680166069708
1.22E-5                   0.004564317748947358
1.2299999999999999E-5     0.004426059322919295
1.24E-5                   0.0042898313282019995
1.2499999999999999E-5     0.004159700664677567
1.26E-5                   0.004029570004449117
1.2699999999999999E-5     0.00390971923129852
1.28E-5                   0.0037902828269580934
1.29E-5                   0.003674944652305457
1.3E-5                    0.003561600519502586
1.31E-5                   0.0034520254700695285
1.3199999999999999E-5     0.0033484932629708
1.33E-5                   0.003245503216853535
1.3399999999999999E-5     0.003147643752019551
1.35E-5                   0.0030497842885121563
1.3599999999999999E-5     0.002957158673889242
1.37E-5                   0.0028657846763721195
1.38E-5                   0.0027805145230082877
1.3899999999999999E-5     0.0027004426187974386
1.4E-5                    0.002604293481916458
1.4099999999999999E-5     0.002517232000360933
1.42E-5                   0.0024584367864358765
1.4299999999999999E-5     0.0023861694858965973
1.44E-5                   0.002298749833617922
1.45E-5                   0.002237773923816312
1.4599999999999999E-5     0.00216408384362561
1.47E-5                   0.0020991721196784337
1.4799999999999999E-5     0.0020349985114072903
1.49E-5                   0.0019739791764839315
1.4999999999999999E-5     0.0019120066119088495
1.51E-5                   0.0018554389616535054
1.52E-5                   0.0017989677892951907
1.53E-5                   0.0017421229697887994
1.5399999999999998E-5     0.0016912670566776894
1.55E-5                   0.001638774669435281
1.56E-5                   0.001588541916962485
1.57E-5                   0.001540685338165358
1.5799999999999998E-5     0.0014937051240627379
1.59E-5                   0.0014469204038198966
1.6E-5                    0.0014040172227021803
1.61E-5                   0.0013617594295789255
1.62E-5                   0.001319571259797852
1.63E-5                   0.0012792371057594725
1.64E-5                   0.0012404626706321255
1.6499999999999998E-5     0.001202194580584644
1.66E-5                   0.0011661782736894905
1.67E-5                   0.001130161967177363
1.68E-5                   0.0010959480605314174
1.69E-5                   0.001062118970182519
1.7E-5                    0.0010300613599748137
1.71E-5                   0.0010000456832475726
1.7199999999999998E-5     9.700300066629109E-4
1.73E-5                   9.400143302147438E-4
1.74E-5                   9.099986538969874E-4
1.75E-5                   8.828509584626274E-4
1.76E-5                   8.566823619153285E-4
1.77E-5                   8.305137653416016E-4
1.78E-5                   8.043451687374696E-4
1.7899999999999998E-5     7.782763118813322E-4
1.8E-5                    7.558783300296335E-4
1.81E-5                   7.334803482611967E-4
1.82E-5                   7.110823665734933E-4
1.8299999999999998E-5     6.886843849639949E-4
1.84E-5                   6.671760980388503E-4
1.85E-5                   6.476722965727337E-4
1.8599999999999998E-5     6.281684950832179E-4
1.87E-5                   6.086646935686547E-4
1.88E-5                   5.891608920273967E-4
1.89E-5                   5.712859021620695E-4
1.8999999999999998E-5     5.545504725003369E-4
1.91E-5                   5.378150428751341E-4
1.92E-5                   5.210796132854098E-4
1.9299999999999998E-5     5.043441837301113E-4
1.94E-5                   4.903426304422886E-4
1.95E-5                   4.76752042544448E-4
1.96E-5                   4.6316145464603547E-4
1.9699999999999998E-5     4.495708667464911E-4
1.98E-5                   4.3598027884525487E-4
1.99E-5                   4.2238969094176746E-4
1.9999999999999998E-5     4.087991030354686E-4
2.01E-5                   3.9520851512579795E-4
2.02E-5                   3.8161792721219656E-4
2.03E-5                   3.695308436959223E-4
2.0399999999999998E-5     3.5942677680313417E-4
2.05E-5                   3.493227099143442E-4
2.06E-5                   3.392186430293224E-4
2.07E-5                   3.291145761478375E-4
2.0799999999999997E-5     3.1901050926965856E-4
2.09E-5                   3.089064423945546E-4
2.1E-5                    2.9880237552229526E-4
2.1099999999999998E-5     2.8869830865264944E-4
2.12E-5                   2.785942417853859E-4
2.13E-5                   2.7104419485998965E-4
2.14E-5                   2.635117738713094E-4
2.1499999999999997E-5     2.559793528866855E-4
2.16E-5                   2.4844693190602255E-4
2.17E-5                   2.4091451092922536E-4
2.1799999999999998E-5     2.3338208995619838E-4
2.19E-5                   2.25849668986846E-4
2.2E-5                    2.1831724802107323E-4
2.21E-5                   2.1078482705878446E-4
2.2199999999999998E-5     2.0431882518157484E-4
2.23E-5                   1.987076769259852E-4
2.24E-5                   1.9309652866734771E-4
2.2499999999999998E-5     1.8748538040562254E-4
2.26E-5                   1.8187423214077012E-4
2.27E-5                   1.762630838727513E-4
2.28E-5                   1.7065193560152636E-4
2.2899999999999998E-5     1.650407873270559E-4
2.3E-5                    1.5942963904930018E-4
2.31E-5                   1.5398667156798232E-4
2.3199999999999998E-5     1.4981331871128032E-4
2.33E-5                   1.4563996585780333E-4
2.34E-5                   1.4146661300753542E-4
2.35E-5                   1.3729326016046026E-4
2.3599999999999998E-5     1.3311990731656155E-4
2.37E-5                   1.289465544758229E-4
2.38E-5                   1.2477320163822834E-4
2.3899999999999998E-5     1.205998488037616E-4
2.4E-5                    1.164264959724061E-4
2.41E-5                   1.129710475177458E-4
2.42E-5                   1.0985517203774123E-4
2.4299999999999998E-5     1.0673929655559255E-4
2.44E-5                   1.0362342107129283E-4
2.45E-5                   1.0050754558483551E-4
2.4599999999999998E-5     9.739167009621378E-5
2.4699999999999997E-5     9.427579460542085E-5
2.48E-5                   9.115991911244986E-5
2.49E-5                   8.804404361729432E-5
2.4999999999999998E-5     8.512137186730115E-5
2.51E-5                   8.280784900911622E-5
2.52E-5                   8.049432615234234E-5
2.53E-5                   7.818080329697661E-5
2.5399999999999997E-5     7.586728044301633E-5
2.55E-5                   7.355375759045855E-5
2.56E-5                   7.124023473930081E-5
2.5699999999999998E-5     6.892671188954011E-5
2.58E-5                   6.661318904117369E-5
2.59E-5                   6.42996661941989E-5
2.6E-5                    6.261245561361681E-5
2.6099999999999997E-5     6.107918081348367E-5
2.62E-5                   5.9545906012987E-5
2.63E-5                   5.801263121212608E-5
2.6399999999999998E-5     5.647935641090006E-5
2.65E-5                   5.4946081609308096E-5
2.66E-5                   5.3412806807349475E-5
2.67E-5                   5.187953200502335E-5
2.6799999999999998E-5     5.0346257202328915E-5
2.69E-5                   4.8812982399265296E-5
2.7E-5                    4.72797075958318E-5
2.7099999999999998E-5     4.57464327920276E-5
2.7199999999999997E-5     4.421315798785185E-5
2.73E-5                   4.267988318330371E-5
2.74E-5                   4.114660837838248E-5
2.7499999999999998E-5     3.9613333573087285E-5
2.76E-5                   3.808005876741729E-5
2.77E-5                   3.654678396137179E-5
2.7799999999999998E-5     3.501350915494994E-5
2.7899999999999997E-5     3.4124576397629435E-5
2.8E-5                    3.3286733980783445E-5
2.81E-5                   3.244889156406214E-5
2.8199999999999998E-5     3.1611049147465346E-5
2.83E-5                   3.0773206730992925E-5
2.84E-5                   2.9935364314644804E-5
2.8499999999999998E-5     2.909752189842081E-5
2.8599999999999997E-5     2.8259679482320817E-5
2.87E-5                   2.7421837066344676E-5
2.88E-5                   2.658399465049229E-5
2.8899999999999998E-5     2.5746152234763516E-5
2.9E-5                    2.490830981915819E-5
2.91E-5                   2.4070467403676234E-5
2.9199999999999998E-5     2.3232624988317488E-5
2.9299999999999997E-5     2.2394782573081826E-5
2.94E-5                   2.1556940157969083E-5
2.95E-5                   2.071909774297919E-5
2.9599999999999998E-5     1.9881255328111984E-5
2.97E-5                   1.9062543469545362E-5
2.98E-5                   1.8604579522001087E-5
2.99E-5                   1.8146615574427937E-5
2.9999999999999997E-5     1.7688651626825887E-5
3.01E-5                   1.7230687679194902E-5
3.02E-5                   1.6772723731534983E-5
3.0299999999999998E-5     1.6314759783846105E-5
3.04E-5                   1.585679583612822E-5
3.05E-5                   1.539883188838135E-5
3.06E-5                   1.4940867940605445E-5
3.07E-5                   1.4482903992800477E-5
3.0799999999999996E-5     1.4024940044966468E-5
3.09E-5                   1.3566976097103332E-5
3.1E-5                    1.3109012149211087E-5
3.11E-5                   1.2651048201289732E-5
3.12E-5                   1.2193084253339189E-5
3.13E-5                   1.1735120305359472E-5
3.14E-5                   1.1277156357350579E-5
3.15E-5                   1.0819192409312437E-5
3.1599999999999996E-5     1.0397294738069309E-5
3.17E-5                   1.0146388184862044E-5
3.18E-5                   9.895481631655833E-6
3.1899999999999996E-5     9.6445750784507E-6
3.2E-5                    9.393668525246595E-6
3.21E-5                   9.14276197204354E-6
3.22E-5                   8.891855418841544E-6
3.23E-5                   8.640948865640574E-6
3.24E-5                   8.390042312440638E-6
3.25E-5                   8.139135759241754E-6
3.26E-5                   7.888229206043878E-6
3.2699999999999995E-5     7.63732265284705E-6
3.28E-5                   7.386416099651223E-6
3.29E-5                   7.135509546456419E-6
3.2999999999999996E-5     6.884602993262646E-6
3.31E-5                   6.633696440069868E-6
3.32E-5                   6.382789886878097E-6
3.3299999999999996E-5     6.131883333687348E-6
3.34E-5                   5.880976780497585E-6
3.35E-5                   5.671496991333093E-6
3.36E-5                   5.559601678277992E-6
3.37E-5                   5.44770636522442E-6
3.38E-5                   5.335811052172384E-6
3.39E-5                   5.223915739121893E-6
3.4E-5                    5.112020426072929E-6
3.4099999999999995E-5     5.000125113025511E-6
3.42E-5                   4.888229799979618E-6
3.43E-5                   4.776334486935261E-6
3.4399999999999996E-5     4.664439173892446E-6
3.45E-5                   4.552543860851157E-6
3.46E-5                   4.440648547811404E-6
3.4699999999999996E-5     4.3287532347731915E-6
3.48E-5                   4.216857921736504E-6
3.49E-5                   4.104962608701351E-6
3.5E-5                    3.9930672956677385E-6
3.51E-5                   3.88117198263565E-6
3.52E-5                   3.769276669605093E-6
3.53E-5                   3.657381356576076E-6
3.54E-5                   3.5454860435485843E-6
3.5499999999999996E-5     3.4335907305226304E-6
3.56E-5                   3.3216954174982003E-6
3.57E-5                   3.209800104475301E-6
3.5799999999999996E-5     3.0979047914539382E-6
3.59E-5                   2.986009478434099E-6
3.6E-5                    2.874114165415789E-6
3.6099999999999997E-5     2.7622188523990175E-6
3.62E-5                   2.6503235393837654E-6
3.63E-5                   2.5384282263700435E-6
3.64E-5                   2.4265329133578564E-6
3.65E-5                   2.3146376003471906E-6
3.6599999999999995E-5     2.20274228733806E-6
3.67E-5                   2.09084697433045E-6
3.68E-5                   1.9789516613243665E-6
3.6899999999999996E-5     1.8670563483198171E-6
3.7E-5                    1.755161035316787E-6
3.71E-5                   1.6432657223152836E-6
3.7199999999999996E-5     1.5313704093153135E-6
3.73E-5                   1.464595678976174E-6
3.74E-5                   1.4353901853164764E-6
3.75E-5                   1.4061846916561782E-6
3.76E-5                   1.3769791979952768E-6
3.77E-5                   1.347773704333773E-6
3.78E-5                   1.3185682106716697E-6
3.79E-5                   1.2893627170089619E-6
3.7999999999999995E-5     1.2601572233456546E-6
3.81E-5                   1.2309517296817436E-6
3.82E-5                   1.2017462360172304E-6
3.8299999999999996E-5     1.1725407423521175E-6
3.84E-5                   1.1433352486864007E-6
3.85E-5                   1.1141297550200816E-6
3.8599999999999996E-5     1.0849242613531623E-6
3.87E-5                   1.0557187676856396E-6
3.88E-5                   1.0265132740175149E-6
3.89E-5                   9.973077803487902E-7
3.9E-5                    9.681022866794614E-7
3.9099999999999995E-5     9.388967930095325E-7
3.92E-5                   9.09691299339E-7
3.93E-5                   8.804858056678652E-7
3.9399999999999995E-5     8.512803119961305E-7
3.95E-5                   8.220748183237919E-7
3.96E-5                   7.928693246508513E-7
3.9699999999999996E-5     7.636638309773107E-7
3.98E-5                   7.344583373031661E-7
3.99E-5                   7.052528436284193E-7
3.9999999999999996E-5     6.760473499530726E-7
4.01E-5                   6.468418562771221E-7
4.02E-5                   6.176363626005692E-7
4.03E-5                   5.884308689234164E-7
4.04E-5                   5.592253752456594E-7
4.0499999999999995E-5     5.300198815673025E-7
4.06E-5                   5.008143878883416E-7
4.07E-5                   4.716088942087785E-7
4.0799999999999996E-5     4.424034005286155E-7
4.09E-5                   4.1319790684784826E-7
4.1E-5                    3.839924131664791E-7
4.1099999999999996E-5     3.7210623302472125E-7
4.12E-5                   3.6473241659350586E-7
4.13E-5                   3.573586001624641E-7
4.14E-5                   3.4998478373159633E-7
4.15E-5                   3.4261096730090166E-7
4.1599999999999995E-5     3.3523715087038105E-7
4.17E-5                   3.278633344400335E-7
4.18E-5                   3.204895180098595E-7
4.1899999999999995E-5     3.131157015798597E-7
4.2E-5                    3.0574188515003287E-7
4.21E-5                   2.983680687203796E-7
4.2199999999999996E-5     2.909942522909004E-7
4.23E-5                   2.836204358615942E-7
4.24E-5                   2.762466194324618E-7
4.2499999999999996E-5     2.688728030035032E-7
4.26E-5                   2.6149898657471776E-7
4.27E-5                   2.54125170146106E-7
4.28E-5                   2.467513537176682E-7
4.29E-5                   2.393775372894035E-7
4.2999999999999995E-5     2.3200372086131287E-7
4.31E-5                   2.2462990443339528E-7
4.32E-5                   2.172560880056513E-7
4.3299999999999995E-5     2.0988227157808136E-7
4.34E-5                   2.0250845515068447E-7
4.35E-5                   1.9513463872346115E-7
4.3599999999999996E-5     1.8776082229641193E-7
4.37E-5                   1.8038700586953578E-7
4.38E-5                   1.7301318944283315E-7
4.3899999999999996E-5     1.6563937301630464E-7
4.4E-5                    1.5826555658994916E-7
4.41E-5                   1.508917401637673E-7
4.42E-5                   1.4351792373775946E-7
4.43E-5                   1.361441073119247E-7
4.4399999999999995E-5     1.28770290886264E-7
4.45E-5                   1.2139647446077638E-7
4.46E-5                   1.1402265803546231E-7
4.4699999999999996E-5     1.0664884161032231E-7
4.48E-5                   9.951697126552488E-8
4.49E-5                   9.804979995109501E-8
4.4999999999999996E-5     9.658262863664948E-8
4.51E-5                   9.511545732218811E-8
4.52E-5                   9.364828600771098E-8
4.5299999999999997E-5     9.218111469321817E-8
4.54E-5                   9.071394337870951E-8
4.5499999999999995E-5     8.924677206418522E-8
4.56E-5                   8.777960074964504E-8
4.57E-5                   8.631242943508911E-8
4.5799999999999995E-5     8.484525812051751E-8
4.59E-5                   8.337808680593009E-8
4.6E-5                    8.191091549132688E-8
4.6099999999999996E-5     8.044374417670804E-8
4.62E-5                   7.897657286207333E-8
4.63E-5                   7.750940154742286E-8
4.6399999999999996E-5     7.604223023275674E-8
4.65E-5                   7.457505891807475E-8
4.66E-5                   7.310788760337702E-8
4.67E-5                   7.164071628866362E-8
4.68E-5                   7.017354497393437E-8
4.6899999999999995E-5     6.870637365918944E-8
4.7E-5                    6.723920234442868E-8
4.71E-5                   6.577203102965216E-8
4.7199999999999995E-5     6.430485971485998E-8
4.73E-5                   6.283768840005193E-8
4.74E-5                   6.137051708522813E-8
4.7499999999999996E-5     5.990334577038867E-8
4.76E-5                   5.843617445553337E-8
4.77E-5                   5.6969003140662285E-8
4.7799999999999996E-5     5.550183182577556E-8
4.79E-5                   5.403466051087298E-8
4.8E-5                    5.256748919595463E-8
4.81E-5                   5.110031788102062E-8
4.82E-5                   4.9633146566070774E-8
4.8299999999999995E-5     4.816597525110526E-8
4.84E-5                   4.6698803936123886E-8
4.85E-5                   4.523163262112676E-8
4.8599999999999995E-5     4.3764461306113974E-8
4.87E-5                   4.229728999108533E-8
4.88E-5                   4.083011867604092E-8
4.8899999999999996E-5     3.9362947360980864E-8
4.9E-5                    3.789577604590495E-8
4.91E-5                   3.642860473081327E-8
4.9199999999999997E-5     3.496143341570595E-8
4.93E-5                   3.349426210058276E-8
4.9399999999999995E-5     3.202709078544392E-8
4.95E-5                   3.055991947028922E-8
4.96E-5                   2.9092748155118752E-8
4.9699999999999995E-5     2.7625576839932633E-8
4.98E-5                   2.6158405524730662E-8
4.99E-5                   2.4691234209512935E-8
4.9999999999999996E-5     2.322406289427954E-8
5.01E-5                   2.1756891579030296E-8
5.02E-5                   2.0289720263765297E-8
5.0299999999999996E-5     1.882254894848463E-8
5.04E-5                   1.7355377633188108E-8
5.05E-5                   1.5888206317875834E-8
5.06E-5                   1.4421035002547903E-8
5.07E-5                   1.2953863687204112E-8
5.0799999999999995E-5     1.1486692371844661E-8
5.09E-5                   1.0019521056469358E-8
5.1E-5                    8.552349741078299E-9
5.1099999999999995E-5     7.0851784256715735E-9
5.12E-5                   5.6180071102489994E-9
5.13E-5                   4.150835794810665E-9
5.1399999999999996E-5     2.6836644793566747E-9
5.15E-5                   1.2164931638868237E-9
5.16E-5                   -2.5067815159878253E-10
5.1699999999999996E-5     -1.7178494671000457E-9
5.18E-5                   -3.1850207826171664E-9
5.1899999999999994E-5     -4.652192098149945E-9
5.2E-5                    -6.11936341369858E-9
5.21E-5                   -7.586534729262973E-9
5.2199999999999995E-5     -9.053706044843025E-9
5.23E-5                   -1.052087736043893E-8
5.24E-5                   -1.1114706765408165E-8
5.2499999999999995E-5     -1.0953306952989007E-8
5.26E-5                   -1.0791907140571153E-8
5.27E-5                   -1.0630507328154617E-8
5.2799999999999996E-5     -1.0469107515739408E-8
5.29E-5                   -1.0307707703325501E-8
5.3E-5                    -1.0146307890912914E-8
5.3099999999999996E-5     -9.984908078501654E-9
5.32E-5                   -9.823508266091699E-9
5.3299999999999995E-5     -9.662108453683071E-9
5.34E-5                   -9.500708641275745E-9
5.35E-5                   -9.339308828869738E-9
5.3599999999999995E-5     -9.17790901646506E-9
5.37E-5                   -9.016509204061685E-9
5.38E-5                   -8.855109391659626E-9
5.3899999999999996E-5     -8.693709579258893E-9
5.4E-5                    -8.532309766859466E-9
5.41E-5                   -8.370909954461357E-9
5.4199999999999996E-5     -8.209510142064574E-9
5.43E-5                   -8.048110329669095E-9
5.4399999999999994E-5     -7.886710517274944E-9
5.4499999999999997E-5     -7.725310704882099E-9
5.46E-5                   -7.563910892490567E-9
5.4699999999999995E-5     -7.4025110801003645E-9
5.48E-5                   -7.241111267711468E-9
5.49E-5                   -7.079711455323886E-9
5.4999999999999995E-5     -6.9183116429376316E-9
5.51E-5                   -6.7569118305526825E-9
5.52E-5                   -6.59551201816905E-9
5.5299999999999996E-5     -6.434112205786745E-9
5.54E-5                   -6.272712393405744E-9
5.55E-5                   -6.111312581026058E-9
5.5599999999999996E-5     -5.949912768647702E-9
5.57E-5                   -5.78851295627065E-9
5.5799999999999994E-5     -5.627113143894924E-9
5.59E-5                   -5.465713331520504E-9
5.6E-5                    -5.304313519147401E-9
5.6099999999999995E-5     -5.142913706775624E-9
5.62E-5                   -4.981513894405152E-9
5.63E-5                   -4.8201140820359965E-9
5.6399999999999995E-5     -4.658714269668169E-9
5.65E-5                   -4.497314457301646E-9
5.66E-5                   -4.33591464493644E-9
5.6699999999999996E-5     -4.17451483257256E-9
5.68E-5                   -4.013115020209986E-9
5.69E-5                   -3.851715207848727E-9
5.6999999999999996E-5     -3.690315395488796E-9
5.71E-5                   -3.528915583130169E-9
5.7199999999999994E-5     -3.367515770772871E-9
5.73E-5                   -3.2061159584168763E-9
5.74E-5                   -3.044716146062199E-9
5.7499999999999995E-5     -2.8833163337088482E-9
5.76E-5                   -2.7219165213568027E-9
5.77E-5                   -2.5605167090060736E-9
5.7799999999999995E-5     -2.3991168966566713E-9
5.79E-5                   -2.237717084308575E-9
5.8E-5                    -2.076317271961794E-9
5.8099999999999996E-5     -1.9149174596163405E-9
5.82E-5                   -1.7535176472721916E-9
5.8299999999999994E-5     -1.5921178349293702E-9
5.8399999999999997E-5     -1.4307180225878543E-9
5.85E-5                   -1.2693182102476542E-9
5.8599999999999995E-5     -1.1079183979087813E-9
5.87E-5                   -9.465185855712133E-10
5.88E-5                   -7.85118773234962E-10
5.8899999999999995E-5     -6.237189609000372E-10
5.9E-5                    -4.6231914856641793E-10
5.91E-5                   -3.009193362341148E-10
5.9199999999999996E-5     -1.3951952390313874E-10
5.93E-5                   2.188028842653224E-11
5.94E-5                   1.8328010075488688E-10
5.9499999999999996E-5     3.4467991308191444E-10
5.96E-5                   5.06079725407637E-10
5.9699999999999994E-5     6.674795377320323E-10
5.98E-5                   8.288793500551226E-10
5.99E-5                   9.85043134058205E-10
5.9999999999999995E-5     9.805551600302766E-10
6.01E-5                   9.760671860023397E-10
6.02E-5                   9.715792119743948E-10
6.0299999999999995E-5     9.67091237946442E-10
6.04E-5                   9.626032639184805E-10
6.05E-5                   9.581152898905108E-10
6.0599999999999996E-5     9.536273158625334E-10
6.07E-5                   9.491393418345473E-10
6.08E-5                   9.44651367806553E-10
6.0899999999999996E-5     9.401633937785507E-10
6.1E-5                    9.3567541975054E-10
6.11E-5                   9.311874457225218E-10
6.12E-5                   9.266994716944947E-10
6.13E-5                   9.222114976664593E-10
6.14E-5                   9.177235236384158E-10
6.149999999999999E-5      9.132355496103647E-10
6.159999999999999E-5      9.08747575582305E-10
6.17E-5                   9.042596015542369E-10
6.18E-5                   8.997716275261608E-10
6.19E-5                   8.95283653498076E-10
6.2E-5                    8.907956794699833E-10
6.209999999999999E-5      8.863077054418833E-10
6.22E-5                   8.818197314137742E-10
6.23E-5                   8.773317573856568E-10
6.24E-5                   8.728437833575312E-10
6.25E-5                   8.683558093293975E-10
6.26E-5                   8.638678353012556E-10
6.269999999999999E-5      8.593798612731061E-10