% Model:              20230225_JW_4_35.mph
% Version:            COMSOL 5.6.0.401
% Date:               Feb 25 2023, 21:02
% Dimension:          1
% Nodes:              1001
% Expressions:        1
% Description:        点图
% X                       Height
0                         19.55647798584348
1.0E-7                    19.518880705357418
2.0E-7                    19.352254240572687
3.0E-7                    19.08425822528211
4.0E-7                    18.731321965370746
5.0E-7                    18.348567591450514
6.0E-7                    17.93035715572579
7.0E-7                    17.498461494612556
8.0E-7                    17.066071083149385
9.0E-7                    16.634153866006326
1.0E-6                    16.206002886723105
1.1E-6                    15.782397266975565
1.2E-6                    15.365265998076552
1.2999999999999998E-6     14.955206618647827
1.4E-6                    14.551594445751949
1.5E-6                    14.155299494174804
1.6E-6                    13.76640443538005
1.6999999999999998E-6     13.386207218627858
1.8E-6                    13.013769585985987
1.9E-6                    12.649204921750185
2.0E-6                    12.292673265463584
2.1E-6                    11.944336922372267
2.2E-6                    11.604449896698696
2.3E-6                    11.272484608658974
2.4E-6                    10.94762651746352
2.4999999999999998E-6     10.635672436074458
2.5999999999999997E-6     10.328614423480003
2.7E-6                    10.028109995286174
2.8E-6                    9.737064634990464
2.8999999999999998E-6     9.450552242962248
3.0E-6                    9.17260608165268
3.1E-6                    8.903171820391082
3.2E-6                    8.641137041829909
3.2999999999999997E-6     8.385927676932008
3.3999999999999996E-6     8.138022254535114
3.5E-6                    7.897069448842744
3.6E-6                    7.6624983101890045
3.6999999999999997E-6     7.434156709787958
3.8E-6                    7.2123845990961035
3.9E-6                    6.996846755235419
4.0E-6                    6.787566194008221
4.1E-6                    6.584194784720677
4.2E-6                    6.386617597766843
4.2999999999999995E-6     6.194769333511588
4.4E-6                    6.008826017635739
4.5E-6                    5.828066016950271
4.6E-6                    5.652638034108165
4.7E-6                    5.482615930701987
4.8E-6                    5.317218099818499
4.9E-6                    5.157048393235991
4.9999999999999996E-6     5.002280835008239
5.0999999999999995E-6     4.850379807059181
5.199999999999999E-6      4.704501189669603
5.3E-6                    4.562473186224375
5.4E-6                    4.4238655517217005
5.5E-6                    4.29012257229072
5.6E-6                    4.160631747102898
5.7E-6                    4.034274436079439
5.7999999999999995E-6     3.9117124680660464
5.899999999999999E-6      3.793638627628677
6.0E-6                    3.678470485634548
6.1E-6                    3.566238265574372
6.2E-6                    3.458515364793458
6.3E-6                    3.353351094845254
6.4E-6                    3.2515522239034613
6.5E-6                    3.1526761589416057
6.5999999999999995E-6     3.056746044593629
6.699999999999999E-6      2.963767550202003
6.799999999999999E-6      2.8736214655586774
6.9E-6                    2.7862952550519764
7.0E-6                    2.7015492880075307
7.1E-6                    2.619400775490015
7.2E-6                    2.539709012632666
7.2999999999999996E-6     2.462449310362153
7.3999999999999995E-6     2.387503126004142
7.499999999999999E-6      2.314864700050103
7.6E-6                    2.2444332470315724
7.699999999999999E-6      2.1760834105668487
7.8E-6                    2.109768109139466
7.899999999999999E-6      2.045562307301123
8.0E-6                    1.983285933455129
8.1E-6                    1.9230785906773895
8.2E-6                    1.8645164684126225
8.3E-6                    1.8076944197998495
8.4E-6                    1.7525648874440058
8.5E-6                    1.699078356556964
8.599999999999999E-6      1.6471915062467504
8.7E-6                    1.5970850037865278
8.8E-6                    1.5484865761722768
8.9E-6                    1.50133512611218
9.0E-6                    1.4555852289892
9.1E-6                    1.4111995701995332
9.2E-6                    1.3683484438082714
9.299999999999999E-6      1.3270777069371076
9.4E-6                    1.285810076919491
9.499999999999999E-6      1.2473602514716082
9.6E-6                    1.2089104335817595
9.7E-6                    1.1723320759647864
9.8E-6                    1.1365087325867504
9.9E-6                    1.1017244342113646
9.999999999999999E-6      1.068351795350378
1.01E-5                   1.0352885338798392
1.0199999999999999E-5     1.0042004929089496
1.03E-5                   0.9731124560488875
1.0399999999999999E-5     0.9438193883436667
1.05E-5                   0.9148509198422484
1.06E-5                   0.88699319988585
1.07E-5                   0.8600142633837389
1.08E-5                   0.8335304318369626
1.0899999999999999E-5     0.8083870050601895
1.1E-5                    0.7832435800353329
1.1099999999999999E-5     0.7597985892145901
1.12E-5                   0.73638618519084
1.13E-5                   0.71407549694156
1.14E-5                   0.6922537531705869
1.15E-5                   0.6710387773701458
1.1599999999999999E-5     0.6507187288031854
1.17E-5                   0.6305588604675596
1.1799999999999999E-5     0.6116257065921742
1.19E-5                   0.5926925535514791
1.2E-5                    0.5748271453082733
1.21E-5                   0.5571852010910964
1.22E-5                   0.5402012811562232
1.2299999999999999E-5     0.5237815804067939
1.24E-5                   0.5076359009777199
1.2499999999999999E-5     0.49231310026914854
1.26E-5                   0.4769902997780333
1.2699999999999999E-5     0.462712607894818
1.28E-5                   0.4484770431339478
1.29E-5                   0.43486668347654933
1.3E-5                    0.421560524573522
1.31E-5                   0.4086197638953771
1.3199999999999999E-5     0.39626483374924665
1.33E-5                   0.3839892157610383
1.3399999999999999E-5     0.3724641467682443
1.35E-5                   0.3609390782543008
1.3599999999999999E-5     0.3500223887742119
1.37E-5                   0.33925118572429597
1.38E-5                   0.32890176065450527
1.3899999999999999E-5     0.318950361811297
1.4E-5                    0.3092129148963931
1.4099999999999999E-5     0.29964543180620096
1.42E-5                   0.2903786709829581
1.4299999999999999E-5     0.28141703505826576
1.44E-5                   0.27277697954452224
1.45E-5                   0.2644324791884341
1.4599999999999999E-5     0.2563388618849792
1.47E-5                   0.24853791934560737
1.4799999999999999E-5     0.24094764958864479
1.49E-5                   0.23360357646389288
1.4999999999999999E-5     0.22646520451201865
1.51E-5                   0.2195898222865805
1.52E-5                   0.21287202113333556
1.53E-5                   0.20636513066996934
1.5399999999999998E-5     0.20008866656013466
1.55E-5                   0.19399099122915894
1.56E-5                   0.18807683862523306
1.57E-5                   0.18233809976499168
1.5799999999999998E-5     0.17676645209606337
1.59E-5                   0.17136119104422623
1.6E-5                    0.16613494371232512
1.61E-5                   0.16115740240234752
1.62E-5                   0.1562066909687428
1.63E-5                   0.1514457358501835
1.64E-5                   0.14684441614859747
1.6499999999999998E-5     0.14230268815910904
1.66E-5                   0.13802597219497104
1.67E-5                   0.1337492562403463
1.68E-5                   0.12972084474722415
1.69E-5                   0.1257454468297347
1.7E-5                    0.12195872615520123
1.71E-5                   0.11838948820481607
1.7199999999999998E-5     0.11482025025999629
1.73E-5                   0.11125101232043783
1.74E-5                   0.10768177438583695
1.75E-5                   0.1044749876704997
1.76E-5                   0.10139193804604815
1.77E-5                   0.09830888842611687
1.78E-5                   0.0952258388105109
1.7899999999999998E-5     0.09215390549997099
1.8E-5                    0.08949110233096386
1.81E-5                   0.08682829916428622
1.82E-5                   0.08416549599981235
1.8299999999999998E-5     0.0815026928374167
1.84E-5                   0.07895140037830073
1.85E-5                   0.07665134196918218
1.8599999999999998E-5     0.07435128356195525
1.87E-5                   0.07205122515653821
1.88E-5                   0.06975116675284954
1.89E-5                   0.06763548547998594
1.8999999999999998E-5     0.06564879937319937
1.91E-5                   0.06366211326735326
1.92E-5                   0.06167542716239612
1.9299999999999998E-5     0.0596887410582762
1.94E-5                   0.058032181843014105
1.95E-5                   0.056425248402504624
1.96E-5                   0.05481831496253924
1.9699999999999998E-5     0.05321138152309008
1.98E-5                   0.05160444808412924
1.99E-5                   0.049997514645629036
1.9999999999999998E-5     0.04839058120756152
2.01E-5                   0.04678364776989885
2.02E-5                   0.04517671433261325
2.03E-5                   0.04374659221294031
2.0399999999999998E-5     0.042549671792690265
2.05E-5                   0.04135275137278961
2.06E-5                   0.040155830953227126
2.07E-5                   0.0389589105339914
2.0799999999999997E-5     0.03776199011507112
2.09E-5                   0.03656506969645488
2.1E-5                    0.035368149278131415
2.1099999999999998E-5     0.034171228860089366
2.12E-5                   0.03297430844231734
2.13E-5                   0.03208082948668858
2.14E-5                   0.03118944465682056
2.1499999999999997E-5     0.030298059827026547
2.16E-5                   0.02940667499730175
2.17E-5                   0.028515290167641445
2.1799999999999998E-5     0.027623905338040853
2.19E-5                   0.026732520508495172
2.2E-5                    0.02584113567899971
2.21E-5                   0.02494975084954966
2.2199999999999998E-5     0.02418461962072124
2.23E-5                   0.02352069470919526
2.24E-5                   0.022856769797726283
2.2499999999999998E-5     0.02219284488631236
2.26E-5                   0.021528919974951523
2.27E-5                   0.0208649950636419
2.28E-5                   0.020201070152381533
2.2899999999999998E-5     0.0195371452411685
2.3E-5                    0.018873220330000842
2.31E-5                   0.01822911381174361
2.3199999999999998E-5     0.01773461843491036
2.33E-5                   0.017240123058089064
2.34E-5                   0.016745627681278956
2.35E-5                   0.016251132304479197
2.3599999999999998E-5     0.01575663692768897
2.37E-5                   0.015262141550907457
2.38E-5                   0.014767646174133855
2.3899999999999998E-5     0.014273150797367348
2.4E-5                    0.013778655420607086
2.41E-5                   0.013369846828651296
2.42E-5                   0.013001568588074903
2.4299999999999998E-5     0.012633290347504874
2.44E-5                   0.012265012106940877
2.45E-5                   0.01189673386638261
2.4599999999999998E-5     0.011528455625829723
2.4699999999999997E-5     0.011160177385281895
2.48E-5                   0.010791899144738786
2.49E-5                   0.010423620904200084
2.4999999999999998E-5     0.010077972168670568
2.51E-5                   0.009803671624283986
2.52E-5                   0.009529371079900668
2.53E-5                   0.009255070535520457
2.5399999999999997E-5     0.008980769991143217
2.55E-5                   0.008706469446768802
2.56E-5                   0.008432168902397088
2.5699999999999998E-5     0.008157868358027927
2.58E-5                   0.007883567813661169
2.59E-5                   0.007609267269296695
2.6E-5                    0.007409564055676506
2.6099999999999997E-5     0.007228195463589563
2.62E-5                   0.007046826871500745
2.63E-5                   0.006865458279410029
2.6399999999999998E-5     0.006684089687317367
2.65E-5                   0.006502721095222712
2.66E-5                   0.00632135250312604
2.67E-5                   0.006139983911027302
2.6799999999999998E-5     0.005958615318926463
2.69E-5                   0.005777246726823474
2.7E-5                    0.005595878134718309
2.7099999999999998E-5     0.005414509542610922
2.7199999999999997E-5     0.005233140950501274
2.73E-5                   0.005051772358389319
2.74E-5                   0.00487040376627503
2.7499999999999998E-5     0.004689035174158362
2.76E-5                   0.004507666582039269
2.77E-5                   0.004326297989917725
2.7799999999999998E-5     0.004144929397793681
2.7899999999999997E-5     0.0040397019692670144
2.8E-5                    0.00394051182787439
2.81E-5                   0.003841321686483296
2.8199999999999998E-5     0.0037421315450937224
2.83E-5                   0.00364294140370566
2.84E-5                   0.0035437512623191078
2.8499999999999998E-5     0.0034445611209340562
2.8599999999999997E-5     0.0033453709795504996
2.87E-5                   0.0032461808381684274
2.88E-5                   0.0031469906967878393
2.8899999999999998E-5     0.003047800555408726
2.9E-5                    0.002948610414031078
2.91E-5                   0.0028494202726548953
2.9199999999999998E-5     0.002750230131280167
2.9299999999999997E-5     0.002651039989906887
2.94E-5                   0.0025518498485350453
2.95E-5                   0.0024526597071646426
2.9599999999999998E-5     0.0023534695657956694
2.97E-5                   0.002256543391496532
2.98E-5                   0.002202309200789688
2.99E-5                   0.002148075010082329
2.9999999999999997E-5     0.002093840819374452
3.01E-5                   0.002039606628666055
3.02E-5                   0.001985372437957141
3.0299999999999998E-5     0.001931138247247707
3.04E-5                   0.001876904056537749
3.05E-5                   0.0018226698658272708
3.06E-5                   0.0017684356751162694
3.07E-5                   0.0017142014844047414
3.0799999999999996E-5     0.0016599672936926915
3.09E-5                   0.0016057331029801117
3.1E-5                    0.0015514989122670038
3.11E-5                   0.0014972647215533712
3.12E-5                   0.001443030530839205
3.13E-5                   0.001388796340124508
3.14E-5                   0.0013345621494092825
3.15E-5                   0.0012803279586935208
3.1599999999999996E-5     0.0012303738998888732
3.17E-5                   0.0012007120532392314
3.18E-5                   0.001171050206589792
3.1899999999999996E-5     0.0011413883599405573
3.2E-5                    0.0011117265132915225
3.21E-5                   0.0010820646666426905
3.22E-5                   0.0010524028199940618
3.23E-5                   0.001022740973345633
3.24E-5                   9.93079126697406E-4
3.25E-5                   9.634172800493823E-4
3.26E-5                   9.33755433401558E-4
3.2699999999999995E-5     9.040935867539367E-4
3.28E-5                   8.744317401065141E-4
3.29E-5                   8.447698934592924E-4
3.2999999999999996E-5     8.151080468122733E-4
3.31E-5                   7.854462001654524E-4
3.32E-5                   7.557843535188318E-4
3.3299999999999996E-5     7.26122506872413E-4
3.34E-5                   6.964606602261924E-4
3.35E-5                   6.716870424009497E-4
3.36E-5                   6.584280880984083E-4
3.37E-5                   6.451691337958307E-4
3.38E-5                   6.319101794932178E-4
3.39E-5                   6.186512251905704E-4
3.4E-5                    6.053922708878869E-4
3.4099999999999995E-5     5.921333165851693E-4
3.42E-5                   5.788743622824154E-4
3.43E-5                   5.656154079796259E-4
3.4399999999999996E-5     5.523564536768021E-4
3.45E-5                   5.390974993739421E-4
3.46E-5                   5.258385450710468E-4
3.4699999999999996E-5     5.125795907681169E-4
3.48E-5                   4.993206364651508E-4
3.49E-5                   4.8606168216214923E-4
3.5E-5                    4.728027278591132E-4
3.51E-5                   4.5954377355604065E-4
3.52E-5                   4.4628481925293277E-4
3.53E-5                   4.3302586494979025E-4
3.54E-5                   4.197669106466114E-4
3.5499999999999996E-5     4.0650795634339794E-4
3.56E-5                   3.932490020401481E-4
3.57E-5                   3.7999004773686267E-4
3.5799999999999996E-5     3.6673109343354256E-4
3.59E-5                   3.53472139130186E-4
3.6E-5                    3.402131848267939E-4
3.6099999999999997E-5     3.269542305233671E-4
3.62E-5                   3.1369527621990373E-4
3.63E-5                   3.004363219164049E-4
3.64E-5                   2.871773676128711E-4
3.65E-5                   2.739184133093009E-4
3.6599999999999995E-5     2.6065945900569586E-4
3.67E-5                   2.4740050470205423E-4
3.68E-5                   2.3414155039837685E-4
3.6899999999999996E-5     2.2088259609466472E-4
3.7E-5                    2.0762364179091597E-4
3.71E-5                   1.9436468748713142E-4
3.7199999999999996E-5     1.81105733183312E-4
3.73E-5                   1.7319825096768848E-4
3.74E-5                   1.6974662259120464E-4
3.75E-5                   1.662949942147275E-4
3.76E-5                   1.6284336583825642E-4
3.77E-5                   1.593917374617918E-4
3.78E-5                   1.5594010908533376E-4
3.79E-5                   1.5248848070888185E-4
3.7999999999999995E-5     1.4903685233243658E-4
3.81E-5                   1.4558522395599746E-4
3.82E-5                   1.421335955795647E-4
3.8299999999999996E-5     1.3868196720313858E-4
3.84E-5                   1.3523033882671863E-4
3.85E-5                   1.3177871045030502E-4
3.8599999999999996E-5     1.28327082073898E-4
3.87E-5                   1.2487545369749717E-4
3.88E-5                   1.2142382532110271E-4
3.89E-5                   1.1797219694471486E-4
3.9E-5                    1.1452056856833316E-4
3.9099999999999995E-5     1.1106894019195805E-4
3.92E-5                   1.0761731181558909E-4
3.93E-5                   1.0416568343922653E-4
3.9399999999999995E-5     1.0071405506287056E-4
3.95E-5                   9.726242668652073E-5
3.96E-5                   9.381079831017729E-5
3.9699999999999996E-5     9.035916993384046E-5
3.98E-5                   8.690754155750979E-5
3.99E-5                   8.345591318118547E-5
3.9999999999999996E-5     8.000428480486776E-5
4.01E-5                   7.65526564285562E-5
4.02E-5                   7.310102805225101E-5
4.03E-5                   6.964939967595243E-5
4.04E-5                   6.619777129966001E-5
4.0499999999999995E-5     6.274614292337418E-5
4.06E-5                   5.9294514547094486E-5
4.07E-5                   5.584288617082117E-5
4.0799999999999996E-5     5.239125779455446E-5
4.09E-5                   4.893962941829389E-5
4.1E-5                    4.5488001042039694E-5
4.1099999999999996E-5     4.408224683078554E-5
4.12E-5                   4.320952346494117E-5
4.13E-5                   4.233680009909571E-5
4.14E-5                   4.146407673324925E-5
4.15E-5                   4.059135336740165E-5
4.1599999999999995E-5     3.971863000155303E-5
4.17E-5                   3.884590663570328E-5
4.18E-5                   3.797318326985244E-5
4.1899999999999995E-5     3.71004599040006E-5
4.2E-5                    3.6227736538147615E-5
4.21E-5                   3.535501317229356E-5
4.2199999999999996E-5     3.4482289806438477E-5
4.23E-5                   3.360956644058227E-5
4.24E-5                   3.2736843074724975E-5
4.2499999999999996E-5     3.186411970886667E-5
4.26E-5                   3.099139634300723E-5
4.27E-5                   3.0118672977146715E-5
4.28E-5                   2.9245949611285184E-5
4.29E-5                   2.8373226245422517E-5
4.2999999999999995E-5     2.7500502879558827E-5
4.31E-5                   2.6627779513694002E-5
4.32E-5                   2.5755056147828106E-5
4.3299999999999995E-5     2.488233278196119E-5
4.34E-5                   2.400960941609314E-5
4.35E-5                   2.3136886050224016E-5
4.3599999999999996E-5     2.2264162684353868E-5
4.37E-5                   2.139143931848259E-5
4.38E-5                   2.0518715952610232E-5
4.3899999999999996E-5     1.964599258673686E-5
4.4E-5                    1.8773269220862347E-5
4.41E-5                   1.7900545854986765E-5
4.42E-5                   1.7027822489110163E-5
4.43E-5                   1.6155099123232426E-5
4.4399999999999995E-5     1.528237575735367E-5
4.45E-5                   1.4409652391473777E-5
4.46E-5                   1.3536929025592811E-5
4.4699999999999996E-5     1.2664205659710827E-5
4.48E-5                   1.1820008892130498E-5
4.49E-5                   1.1643707192864856E-5
4.4999999999999996E-5     1.1467405493599295E-5
4.51E-5                   1.12911037943338E-5
4.52E-5                   1.1114802095068377E-5
4.5299999999999997E-5     1.0938500395803042E-5
4.54E-5                   1.0762198696537769E-5
4.5499999999999995E-5     1.0585896997272584E-5
4.56E-5                   1.0409595298007459E-5
4.57E-5                   1.0233293598742415E-5
4.5799999999999995E-5     1.0056991899477452E-5
4.59E-5                   9.880690200212555E-6
4.6E-5                    9.70438850094773E-6
4.6099999999999996E-5     9.528086801682992E-6
4.62E-5                   9.351785102418318E-6
4.63E-5                   9.17548340315372E-6
4.6399999999999996E-5     8.999181703889205E-6
4.65E-5                   8.822880004624756E-6
4.66E-5                   8.646578305360381E-6
4.67E-5                   8.470276606096093E-6
4.68E-5                   8.293974906831867E-6
4.6899999999999995E-5     8.117673207567726E-6
4.7E-5                    7.941371508303652E-6
4.71E-5                   7.76506980903965E-6
4.7199999999999995E-5     7.588768109775734E-6
4.73E-5                   7.412466410511881E-6
4.74E-5                   7.236164711248106E-6
4.7499999999999996E-5     7.059863011984415E-6
4.76E-5                   6.883561312720785E-6
4.77E-5                   6.707259613457233E-6
4.7799999999999996E-5     6.530957914193767E-6
4.79E-5                   6.354656214930362E-6
4.8E-5                    6.178354515667034E-6
4.81E-5                   6.00205281640379E-6
4.82E-5                   5.8257511171406115E-6
4.8299999999999995E-5     5.649449417877519E-6
4.84E-5                   5.473147718614488E-6
4.85E-5                   5.296846019351535E-6
4.8599999999999995E-5     5.120544320088664E-6
4.87E-5                   4.944242620825859E-6
4.88E-5                   4.767940921563127E-6
4.8899999999999996E-5     4.591639222300482E-6
4.9E-5                    4.415337523037902E-6
4.91E-5                   4.239035823775395E-6
4.9199999999999997E-5     4.062734124512975E-6
4.93E-5                   3.8864324252506175E-6
4.9399999999999995E-5     3.7101307259883462E-6
4.95E-5                   3.533829026726138E-6
4.96E-5                   3.3575273274640057E-6
4.9699999999999995E-5     3.1812256282019584E-6
4.98E-5                   3.004923928939975E-6
4.99E-5                   2.828622229678066E-6
4.9999999999999996E-5     2.652320530416244E-6
5.01E-5                   2.4760188311544843E-6
5.02E-5                   2.2997171318927987E-6
5.0299999999999996E-5     2.1234154326312013E-6
5.04E-5                   1.9471137333696656E-6
5.05E-5                   1.770812034108205E-6
5.06E-5                   1.5945103348468315E-6
5.07E-5                   1.4182086355855203E-6
5.0799999999999995E-5     1.2419069363242958E-6
5.09E-5                   1.0656052370631343E-6
5.1E-5                    8.893035378020475E-7
5.1099999999999995E-5     7.130018385410468E-7
5.12E-5                   5.367001392801094E-7
5.13E-5                   3.6039844001924695E-7
5.1399999999999996E-5     1.840967407584712E-7
5.15E-5                   7.795041497757695E-9
5.16E-5                   -1.6850665776288085E-7
5.1699999999999996E-5     -3.448083570234325E-7
5.18E-5                   -5.211100562839216E-7
5.1899999999999994E-5     -6.974117555443238E-7
5.2E-5                    -8.737134548046633E-7
5.21E-5                   -1.050015154064928E-6
5.2199999999999995E-5     -1.2263168533251065E-6
5.23E-5                   -1.4026185525852217E-6
5.24E-5                   -1.4715202851868597E-6
5.2499999999999995E-5     -1.4475470603645265E-6
5.26E-5                   -1.4235738355421833E-6
5.27E-5                   -1.3996006107198319E-6
5.2799999999999996E-5     -1.3756273858974735E-6
5.29E-5                   -1.3516541610751053E-6
5.3E-5                    -1.327680936252729E-6
5.3099999999999996E-5     -1.3037077114303457E-6
5.32E-5                   -1.2797344866079526E-6
5.3299999999999995E-5     -1.2557612617855528E-6
5.34E-5                   -1.2317880369631428E-6
5.35E-5                   -1.2078148121407253E-6
5.3599999999999995E-5     -1.1838415873183006E-6
5.37E-5                   -1.159868362495866E-6
5.38E-5                   -1.1358951376734232E-6
5.3899999999999996E-5     -1.1119219128509733E-6
5.4E-5                    -1.087948688028514E-6
5.41E-5                   -1.0639754632060462E-6
5.4199999999999996E-5     -1.0400022383835717E-6
5.43E-5                   -1.0160290135610875E-6
5.4399999999999994E-5     -9.920557887385963E-7
5.4499999999999997E-5     -9.680825639160952E-7
5.46E-5                   -9.44109339093586E-7
5.4699999999999995E-5     -9.201361142710699E-7
5.48E-5                   -8.96162889448544E-7
5.49E-5                   -8.721896646260098E-7
5.4999999999999995E-5     -8.482164398034691E-7
5.51E-5                   -8.242432149809182E-7
5.52E-5                   -8.002699901583589E-7
5.5299999999999996E-5     -7.762967653357931E-7
5.54E-5                   -7.523235405132174E-7
5.55E-5                   -7.283503156906335E-7
5.5599999999999996E-5     -7.043770908680426E-7
5.57E-5                   -6.804038660454422E-7
5.5799999999999994E-5     -6.564306412228348E-7
5.59E-5                   -6.324574164002177E-7
5.6E-5                    -6.084841915775921E-7
5.6099999999999995E-5     -5.845109667549599E-7
5.62E-5                   -5.605377419323175E-7
5.63E-5                   -5.365645171096671E-7
5.6399999999999995E-5     -5.125912922870101E-7
5.65E-5                   -4.88618067464343E-7
5.66E-5                   -4.6464484264166764E-7
5.6699999999999996E-5     -4.406716178189856E-7
5.68E-5                   -4.166983929962936E-7
5.69E-5                   -3.927251681735933E-7
5.6999999999999996E-5     -3.687519433508864E-7
5.71E-5                   -3.4477871852816957E-7
5.7199999999999994E-5     -3.208054937054459E-7
5.73E-5                   -2.968322688827125E-7
5.74E-5                   -2.728590440599708E-7
5.7499999999999995E-5     -2.4888581923722225E-7
5.76E-5                   -2.2491259441446387E-7
5.77E-5                   -2.009393695916972E-7
5.7799999999999995E-5     -1.7696614476892385E-7
5.79E-5                   -1.5299291994614046E-7
5.8E-5                    -1.2901969512334883E-7
5.8099999999999996E-5     -1.0504647030055066E-7
5.82E-5                   -8.107324547774248E-8
5.8299999999999994E-5     -5.710002065492753E-8
5.8399999999999997E-5     -3.312679583210276E-8
5.85E-5                   -9.153571009269652E-9
5.8599999999999995E-5     1.4819653813570105E-8
5.87E-5                   3.87928786364198E-8
5.88E-5                   6.276610345927784E-8
5.8899999999999995E-5     8.673932828214256E-8
5.9E-5                    1.1071255310501717E-7
5.91E-5                   1.346857779279001E-7
5.9199999999999996E-5     1.5865900275078973E-7
5.93E-5                   1.8263222757368924E-7
5.94E-5                   2.0660545239659707E-7
5.9499999999999996E-5     2.305786772195116E-7
5.96E-5                   2.54551902042436E-7
5.9699999999999994E-5     2.7852512686536713E-7
5.98E-5                   3.024983516883082E-7
5.99E-5                   3.2551997260529644E-7
5.9999999999999995E-5     3.193444939009069E-7
6.01E-5                   3.131690151965193E-7
6.02E-5                   3.0699353649213386E-7
6.0299999999999995E-5     3.00818057787751E-7
6.04E-5                   2.9464257908337015E-7
6.05E-5                   2.884671003789914E-7
6.0599999999999996E-5     2.8229162167461534E-7
6.07E-5                   2.7611614297024114E-7
6.08E-5                   2.6994066426586916E-7
6.0899999999999996E-5     2.637651855614999E-7
6.1E-5                    2.5758970685713234E-7
6.11E-5                   2.514142281527674E-7
6.12E-5                   2.4523874944840437E-7
6.13E-5                   2.390632707440436E-7
6.14E-5                   2.3288779203968506E-7
6.149999999999999E-5      2.2671231333532957E-7
6.159999999999999E-5      2.205368346309755E-7
6.17E-5                   2.1436135592662362E-7
6.18E-5                   2.0818587722227403E-7
6.19E-5                   2.0201039851792664E-7
6.2E-5                    1.9583491981358153E-7
6.209999999999999E-5      1.8965944110923949E-7
6.22E-5                   1.8348396240489877E-7
6.23E-5                   1.7730848370056043E-7
6.24E-5                   1.7113300499622426E-7
6.25E-5                   1.649575262918903E-7
6.26E-5                   1.5878204758755863E-7
6.269999999999999E-5      1.5260656888322998E-7
6.28E-5                   1.4643109017890273E-7
6.29E-5                   1.4025561147457776E-7
6.3E-5                    1.34080132770255E-7
6.31E-5                   1.279046540659345E-7
6.319999999999999E-5      1.217291753616171E-7
6.33E-5                   1.1555369665730103E-7
6.34E-5                   1.0937821795298726E-7
6.35E-5                   1.0320273924867575E-7
6.36E-5                   9.702726054436637E-8