% Model:              20230225_JW_4_15.mph
% Version:            COMSOL 5.6.0.401
% Date:               Feb 25 2023, 20:35
% Dimension:          1
% Nodes:              1501
% Expressions:        1
% Description:        点图
% X                       Height
0                         2.58677076883115
1.0E-7                    2.58458058726807
2.0E-7                    2.574065040596411
3.0E-7                    2.576973648144925
4.0E-7                    2.6457127627349224
5.0E-7                    2.701708543871544
6.0E-7                    2.7264935484816086
7.0E-7                    2.7552140337331608
8.0E-7                    2.7741761450210816
9.0E-7                    2.789931458407063
1.0E-6                    2.8010649380707524
1.1E-6                    2.806248226460312
1.2E-6                    2.808611762854162
1.2999999999999998E-6     2.8077268816714898
1.4E-6                    2.804541743917255
1.5E-6                    2.798711375093201
1.6E-6                    2.7906853382418397
1.6999999999999998E-6     2.7814455376650025
1.8E-6                    2.770243312045962
1.9E-6                    2.7581196871434868
2.0E-6                    2.744944854753
2.1E-6                    2.730809332062395
2.2E-6                    2.7159940271772887
2.3E-6                    2.700697882245763
2.4E-6                    2.684914905155719
2.4999999999999998E-6     2.668851015018844
2.5999999999999997E-6     2.6524195143855054
2.7E-6                    2.6357041260591183
2.8E-6                    2.618845668734108
2.8999999999999998E-6     2.6018837479472636
3.0E-6                    2.5848069591979876
3.1E-6                    2.56770629306075
3.2E-6                    2.5505331497392283
3.2999999999999997E-6     2.533390391504542
3.3999999999999996E-6     2.516268653006691
3.5E-6                    2.4991492938215734
3.6E-6                    2.4820933367641347
3.6999999999999997E-6     2.4651074531792023
3.8E-6                    2.448128914928071
3.9E-6                    2.43125858540436
4.0E-6                    2.414516922809108
4.1E-6                    2.3977765504207906
4.2E-6                    2.3813026091198646
4.2999999999999995E-6     2.3648322151197716
4.4E-6                    2.3484403159404326
4.5E-6                    2.332118911964262
4.6E-6                    2.3158172688345386
4.7E-6                    2.2997962102325946
4.8E-6                    2.2837763349318303
4.9E-6                    2.2678804958766334
4.9999999999999996E-6     2.252068342596591
5.0999999999999995E-6     2.2362982698152973
5.199999999999999E-6      2.220796354655856
5.3E-6                    2.2052955487127095
5.4E-6                    2.1899019327592226
5.5E-6                    2.174561755041439
5.6E-6                    2.1593076935643083
5.7E-6                    2.1443870631859174
5.7999999999999995E-6     2.1294675153240665
5.899999999999999E-6      2.1145407371968004
6.0E-6                    2.0996117295766745
6.1E-6                    2.0848574539853053
6.2E-6                    2.070563074918803
6.3E-6                    2.0562698359340406
6.4E-6                    2.0416808455613573
6.5E-6                    2.027022828488396
6.5999999999999995E-6     2.01275561259917
6.699999999999999E-6      1.9992277507061107
6.799999999999999E-6      1.9857011027796565
6.9E-6                    1.9705857561974562
7.0E-6                    1.955256806281873
7.1E-6                    1.9404232139401645
7.2E-6                    1.9258000029013211
7.2999999999999996E-6     1.915648355476222
7.3999999999999995E-6     1.9048589265793963
7.499999999999999E-6      1.8913869282256042
7.6E-6                    1.8750336578790372
7.699999999999999E-6      1.862656610345707
7.8E-6                    1.851188068484449
7.899999999999999E-6      1.8379393126140857
8.0E-6                    1.8244720055014152
8.1E-6                    1.812204132724828
8.2E-6                    1.7997543850204056
8.3E-6                    1.7867386453372942
8.4E-6                    1.7743414306014187
8.5E-6                    1.7620601185761229
8.599999999999999E-6      1.7496756283612425
8.7E-6                    1.737240104471541
8.8E-6                    1.7251835962561075
8.9E-6                    1.7131189286418274
9.0E-6                    1.7009726055661893
9.1E-6                    1.689245662727037
9.2E-6                    1.6773121641850512
9.299999999999999E-6      1.6655830431019034
9.4E-6                    1.6538423136393783
9.499999999999999E-6      1.6422652882540447
9.6E-6                    1.6307066597000714
9.7E-6                    1.6192759613760348
9.8E-6                    1.6079168291498445
9.9E-6                    1.596599602405923
9.999999999999999E-6      1.5854189703396893
1.01E-5                   1.5742799550569229
1.0199999999999999E-5     1.5632381516999483
1.03E-5                   1.5522576768680738
1.0399999999999999E-5     1.541368703598421
1.05E-5                   1.5305664943651323
1.06E-5                   1.5197825359553032
1.07E-5                   1.5091396813325062
1.08E-5                   1.49852677605632
1.0899999999999999E-5     1.4880139022710015
1.1E-5                    1.4775603592226592
1.1099999999999999E-5     1.4671934791232506
1.12E-5                   1.4569018670058274
1.13E-5                   1.4466531145997685
1.14E-5                   1.4365082612218518
1.15E-5                   1.4263923335340103
1.1599999999999999E-5     1.4163929648484692
1.17E-5                   1.4064516881657725
1.1799999999999999E-5     1.3966263568742587
1.19E-5                   1.3868012632452607
1.2E-5                    1.3769764020705355
1.21E-5                   1.3673563217697355
1.22E-5                   1.3577885857246177
1.2299999999999999E-5     1.3482210690390501
1.24E-5                   1.338713674030654
1.2499999999999999E-5     1.329376472214811
1.26E-5                   1.320039476798158
1.2699999999999999E-5     1.3107026833232969
1.28E-5                   1.3015211092231662
1.29E-5                   1.2923987545071474
1.3E-5                    1.2832765898209524
1.31E-5                   1.2741965947003309
1.3199999999999999E-5     1.2652982417050531
1.33E-5                   1.2564000643926543
1.3399999999999999E-5     1.2475020589407704
1.35E-5                   1.2387562969893235
1.3599999999999999E-5     1.2300920349422815
1.37E-5                   1.2214279372596089
1.38E-5                   1.2127868277185705
1.3899999999999999E-5     1.2043212103430443
1.4E-5                    1.1958557437198627
1.4099999999999999E-5     1.1873904245725548
1.42E-5                   1.1790462761121772
1.4299999999999999E-5     1.1707903275482445
1.44E-5                   1.1625345203410329
1.45E-5                   1.1542884811647252
1.4599999999999999E-5     1.1462595495057366
1.47E-5                   1.1382307472855115
1.4799999999999999E-5     1.1302020717044248
1.49E-5                   1.1222454122474281
1.4999999999999999E-5     1.1143590230806175
1.51E-5                   1.1064727564705223
1.52E-5                   1.0985866097296753
1.53E-5                   1.0909770388218354
1.5399999999999998E-5     1.0833761864256788
1.55E-5                   1.075775440437305
1.56E-5                   1.0682014142554295
1.57E-5                   1.0606622874939788
1.5799999999999998E-5     1.0531232723994877
1.59E-5                   1.0455843665492368
1.6E-5                    1.0383045725782825
1.61E-5                   1.031054570001979
1.62E-5                   1.0238046470178188
1.63E-5                   1.0166516096860834
1.64E-5                   1.0096702317097477
1.6499999999999998E-5     1.002688985926259
1.66E-5                   0.9944445553402133
1.67E-5                   0.9861687336494767
1.68E-5                   0.9789243513984671
1.69E-5                   0.9723355984098142
1.7E-5                    0.9680456013016165
1.71E-5                   0.961848674413077
1.7199999999999998E-5     0.9534754856487336
1.73E-5                   0.9464648861809022
1.74E-5                   0.9408977055273302
1.75E-5                   0.9339913714594286
1.76E-5                   0.9275446132864142
1.77E-5                   0.9212220316822178
1.78E-5                   0.9144168624402296
1.7899999999999998E-5     0.9080985010771289
1.8E-5                    0.9017334757890767
1.81E-5                   0.8953665364500534
1.82E-5                   0.8890553351346934
1.8299999999999998E-5     0.8828337534759411
1.84E-5                   0.8765571811741795
1.85E-5                   0.8704058111172006
1.8599999999999998E-5     0.8642763638228859
1.87E-5                   0.858174702227497
1.88E-5                   0.8521315079687285
1.89E-5                   0.846118384656551
1.8999999999999998E-5     0.8401501503625336
1.91E-5                   0.8342294235292015
1.92E-5                   0.8283567816450698
1.9299999999999998E-5     0.8225226185382812
1.94E-5                   0.8167204299436083
1.95E-5                   0.8109745239395911
1.96E-5                   0.8052663886996566
1.9699999999999998E-5     0.7995930760792981
1.98E-5                   0.7939539064225732
1.99E-5                   0.7883698963975336
1.9999999999999998E-5     0.7828196450000989
2.01E-5                   0.7773023086995492
2.02E-5                   0.7718230738602614
2.03E-5                   0.7663950014595301
2.0399999999999998E-5     0.7610112484153632
2.05E-5                   0.755660135971983
2.06E-5                   0.7503090601279525
2.07E-5                   0.7450468816855855
2.0799999999999997E-5     0.7398019869667787
2.09E-5                   0.7345706266938444
2.1E-5                    0.7294228959492742
2.1099999999999998E-5     0.7242751983626416
2.12E-5                   0.7191897769293728
2.13E-5                   0.7141834075795571
2.14E-5                   0.7091770694338175
2.1499999999999997E-5     0.7041707618177161
2.16E-5                   0.6991644840565611
2.17E-5                   0.6941665859200438
2.1799999999999998E-5     0.6893510582914946
2.19E-5                   0.6845355585637288
2.2E-5                    0.679720086136091
2.21E-5                   0.6749046404077147
2.2199999999999998E-5     0.6700892207775273
2.23E-5                   0.665390204447188
2.24E-5                   0.6607547198537157
2.2499999999999998E-5     0.6561192603936473
2.26E-5                   0.6514838255314356
2.27E-5                   0.6468484147313586
2.28E-5                   0.6422546797132241
2.2899999999999998E-5     0.6377858373714778
2.3E-5                    0.6333170172045718
2.31E-5                   0.6288482187346814
2.3199999999999998E-5     0.6243794414838371
2.33E-5                   0.6199106849739293
2.34E-5                   0.6155916247864485
2.35E-5                   0.6112983168518987
2.3599999999999998E-5     0.607005028451214
2.37E-5                   0.6027117591586344
2.38E-5                   0.5984185085482845
2.3899999999999998E-5     0.594197016446805
2.4E-5                    0.5900609651145998
2.41E-5                   0.5859249316651638
2.42E-5                   0.5817889157192254
2.4299999999999998E-5     0.5776529168974148
2.44E-5                   0.5735261330744582
2.45E-5                   0.5695443943777279
2.4599999999999998E-5     0.5655626711798206
2.4699999999999997E-5     0.5615809631421443
2.48E-5                   0.5575992699260279
2.49E-5                   0.5536175911927222
2.4999999999999998E-5     0.549737471025413
2.51E-5                   0.5459090236195339
2.52E-5                   0.5420805905677867
2.53E-5                   0.5382521715688563
2.5399999999999997E-5     0.5344237663213595
2.55E-5                   0.5306322051135137
2.56E-5                   0.5269422966289843
2.5699999999999998E-5     0.5232524002582265
2.58E-5                   0.5195625157320405
2.59E-5                   0.5158726427811727
2.6E-5                    0.5121827811363171
2.6099999999999997E-5     0.5086145836086869
2.62E-5                   0.5050647122885463
2.63E-5                   0.5015148524187468
2.6399999999999998E-5     0.49796500375945335
2.65E-5                   0.49441516607078523
2.66E-5                   0.49093084879483656
2.67E-5                   0.4875197289953247
2.6799999999999998E-5     0.4841086187190214
2.69E-5                   0.4806975177526223
2.7E-5                    0.4772864258827874
2.7099999999999998E-5     0.47388344823778616
2.7199999999999997E-5     0.4705797417212824
2.73E-5                   0.46727604451125204
2.74E-5                   0.46397235641527074
2.7499999999999998E-5     0.4606686772408811
2.76E-5                   0.4573650067955945
2.77E-5                   0.4541732346698196
2.7799999999999998E-5     0.4510344487169676
2.7899999999999997E-5     0.4478956701896587
2.8E-5                    0.4447568989216292
2.81E-5                   0.4416181347465912
2.8199999999999998E-5     0.43849318918400754
2.83E-5                   0.43540344618798843
2.84E-5                   0.43231371086122966
2.8499999999999998E-5     0.4292239830441874
2.8599999999999997E-5     0.4261342625772954
2.87E-5                   0.4230445493009639
2.88E-5                   0.4201387012601636
2.8899999999999998E-5     0.41725674929131457
2.9E-5                    0.4143748025063982
2.91E-5                   0.41149286078383057
2.9199999999999998E-5     0.40861092400201376
2.9299999999999997E-5     0.405734351592613
2.94E-5                   0.4028634049577556
2.95E-5                   0.3999924653179618
2.9599999999999998E-5     0.39712153252647914
2.97E-5                   0.3942506064365368
2.98E-5                   0.3913689980823801
2.99E-5                   0.38848358124905313
2.9999999999999997E-5     0.3855981673637221
3.01E-5                   0.38271275633425794
3.02E-5                   0.38018477668052814
3.0299999999999998E-5     0.37778378969044596
3.04E-5                   0.3753828093014775
3.05E-5                   0.3728713514798658
3.06E-5                   0.37017559771861863
3.07E-5                   0.36747984686026
3.0799999999999996E-5     0.36476433386862256
3.09E-5                   0.3620281949551474
3.1E-5                    0.3592920606208486
3.11E-5                   0.3569644225085639
3.12E-5                   0.35465493574735263
3.13E-5                   0.35217391602357845
3.14E-5                   0.3496129884182506
3.15E-5                   0.3470635267591079
3.1599999999999996E-5     0.34452067161572486
3.17E-5                   0.34211640053059394
3.18E-5                   0.3398097553349668
3.1899999999999996E-5     0.337438981238602
3.2E-5                    0.33501334933443055
3.21E-5                   0.332626339760527
3.22E-5                   0.33027933371489054
3.23E-5                   0.3279587159672872
3.24E-5                   0.3256712133671844
3.25E-5                   0.3233770635850777
3.26E-5                   0.3210727612462919
3.2699999999999995E-5     0.31879721586577725
3.28E-5                   0.3165755506078363
3.29E-5                   0.3143532950760449
3.2999999999999996E-5     0.312129659235801
3.31E-5                   0.3099162397255246
3.32E-5                   0.30773306095037395
3.3299999999999996E-5     0.30555930327883046
3.34E-5                   0.3034221286324495
3.35E-5                   0.3012860899573897
3.36E-5                   0.29915614101860427
3.37E-5                   0.297031405545319
3.38E-5                   0.2949491532472738
3.39E-5                   0.29286931190871746
3.4E-5                    0.2908262200222798
3.4099999999999995E-5     0.28878313025731617
3.42E-5                   0.2867400425683451
3.43E-5                   0.2846969569098824
3.4399999999999996E-5     0.28270905762361537
3.45E-5                   0.28072310064378636
3.46E-5                   0.2787371455210413
3.4699999999999996E-5     0.2767511922136496
3.48E-5                   0.2748178568512585
3.49E-5                   0.27289234764986225
3.5E-5                    0.2709668401894336
3.51E-5                   0.2690413344314838
3.52E-5                   0.2671543671958773
3.53E-5                   0.2652785861275755
3.54E-5                   0.26340280667493204
3.5499999999999996E-5     0.2615270288029979
3.56E-5                   0.2596910186239758
3.57E-5                   0.2578737605529212
3.5799999999999996E-5     0.25605650390167334
3.59E-5                   0.2542392486378796
3.6E-5                    0.2524503219310378
3.6099999999999997E-5     0.250681568254534
3.62E-5                   0.2489128159715718
3.63E-5                   0.2471440650527244
3.64E-5                   0.245400636555658
3.65E-5                   0.24368371280299483
3.6599999999999995E-5     0.24196679023780782
3.67E-5                   0.24024986883298496
3.68E-5                   0.23856144151851294
3.6899999999999996E-5     0.23691700435328195
3.7E-5                    0.23527256832091847
3.71E-5                   0.2336281333976548
3.7199999999999996E-5     0.2319836995597222
3.73E-5                   0.23033926678335065
3.74E-5                   0.22869483504476953
3.75E-5                   0.2270504043202073
3.76E-5                   0.2254245965475952
3.77E-5                   0.22387229729392252
3.78E-5                   0.2223199989863547
3.79E-5                   0.22076770160490797
3.7999999999999995E-5     0.21921540512959836
3.81E-5                   0.21766310954044066
3.82E-5                   0.21611081481744943
3.8299999999999996E-5     0.21455852094063843
3.84E-5                   0.213007215460011
3.85E-5                   0.21154347814688604
3.8599999999999996E-5     0.21007974167137292
3.87E-5                   0.20861600601669567
3.88E-5                   0.20715227116607798
3.89E-5                   0.2056885371027429
3.9E-5                    0.2042248038099127
3.9099999999999995E-5     0.20276107127080945
3.92E-5                   0.20129733946865444
3.93E-5                   0.19989956517141405
3.9399999999999995E-5     0.19851625259746086
3.95E-5                   0.1971329406757623
3.96E-5                   0.19574962939219076
3.9699999999999996E-5     0.19436631873261817
3.98E-5                   0.19298300868291576
3.99E-5                   0.1915996992289547
3.9999999999999996E-5     0.19021639035660576
4.01E-5                   0.18888347058033436
4.02E-5                   0.18758024633725123
4.03E-5                   0.1862770226696306
4.04E-5                   0.18497379956563473
4.0499999999999995E-5     0.18367057701342565
4.06E-5                   0.18236735500116513
4.07E-5                   0.18106413351701459
4.0799999999999996E-5     0.1797609125491352
4.09E-5                   0.1784892011602342
4.1E-5                    0.1772578829379101
4.1099999999999996E-5     0.176026565193243
4.12E-5                   0.17479524791625653
4.13E-5                   0.17356393109697435
4.14E-5                   0.17233261472541983
4.15E-5                   0.1711012987916159
4.1599999999999995E-5     0.16986998328558564
4.17E-5                   0.16865595748004572
4.18E-5                   0.1674945696825591
4.1899999999999995E-5     0.16633318228008384
4.2E-5                    0.16517179526425452
4.21E-5                   0.16401040862670585
4.2199999999999996E-5     0.1628490223590724
4.23E-5                   0.16168763645298825
4.24E-5                   0.1605262509000876
4.2499999999999996E-5     0.1593685628062373
4.26E-5                   0.15827287874179322
4.27E-5                   0.15717719502919889
4.28E-5                   0.15608151166141784
4.29E-5                   0.15498582863141322
4.2999999999999995E-5     0.15389014593214845
4.31E-5                   0.1527944635565865
4.32E-5                   0.15169878149769028
4.3299999999999995E-5     0.1506030997484228
4.34E-5                   0.1495599155066392
4.35E-5                   0.14852490398453178
4.3599999999999996E-5     0.14748989272800464
4.37E-5                   0.1464548817311363
4.38E-5                   0.1454198709880055
4.3899999999999996E-5     0.14438486049269092
4.4E-5                    0.1433498502392709
4.41E-5                   0.14231484022182395
4.42E-5                   0.14132005061546968
4.43E-5                   0.14034468662419777
4.4399999999999995E-5     0.13936932288455545
4.45E-5                   0.13839395939158786
4.46E-5                   0.13741859614034027
4.4699999999999996E-5     0.1364432331258579
4.48E-5                   0.13546787034318566
4.49E-5                   0.13449250778736857
4.4999999999999996E-5     0.13354305880684134
4.51E-5                   0.13262130932775065
4.52E-5                   0.13169956003395272
4.5299999999999997E-5     0.13077781092124913
4.54E-5                   0.12985606198544136
4.5499999999999995E-5     0.12893431322233087
4.56E-5                   0.12801256462771904
4.57E-5                   0.1270908161974073
4.5799999999999995E-5     0.12619111019334614
4.59E-5                   0.12534475429993286
4.6E-5                    0.12449839856396708
4.6099999999999996E-5     0.12365204298222202
4.62E-5                   0.12280568755147067
4.63E-5                   0.1219593322684863
4.6399999999999996E-5     0.12111297713004203
4.65E-5                   0.12026662213291078
4.66E-5                   0.11942026727386566
4.67E-5                   0.11857391254967968
4.68E-5                   0.11772755795712571
4.6899999999999995E-5     0.11688120349297682
4.7E-5                    0.11603484915400569
4.71E-5                   0.11518849493698535
4.7199999999999995E-5     0.11434214083868861
4.73E-5                   0.11349578685588821
4.74E-5                   0.11264943298535696
4.7499999999999996E-5     0.11188886412205797
4.76E-5                   0.11113673653949166
4.77E-5                   0.11038460907913869
4.7799999999999996E-5     0.10963248173871946
4.79E-5                   0.10888035451595421
4.8E-5                    0.10812822740856333
4.81E-5                   0.10737610041426712
4.82E-5                   0.10662397353078584
4.8299999999999995E-5     0.10587184675583976
4.84E-5                   0.10511972008714902
4.85E-5                   0.10436759352243397
4.8599999999999995E-5     0.10361546705941475
4.87E-5                   0.1028633406958115
4.88E-5                   0.10211121442934447
4.8899999999999996E-5     0.10135908825773378
4.9E-5                    0.10060696217869948
4.91E-5                   0.09989852048738083
4.9199999999999997E-5     0.0992290573793725
4.93E-5                   0.09855959436068462
4.9399999999999995E-5     0.0978901314297142
4.95E-5                   0.09722066858485813
4.96E-5                   0.09655120582451335
4.9699999999999995E-5     0.09588174314707684
4.98E-5                   0.09521228055094541
4.99E-5                   0.09454281803451596
4.9999999999999996E-5     0.09387335559618547
5.01E-5                   0.09320389323435067
5.02E-5                   0.09253443094740851
5.0299999999999996E-5     0.09186496873375583
5.04E-5                   0.0911955065917894
5.05E-5                   0.09052604451990609
5.06E-5                   0.08985658251650279
5.07E-5                   0.0891969303800877
5.0799999999999995E-5     0.08859442418461107
5.09E-5                   0.08799191803519034
5.1E-5                    0.0873894119306547
5.1099999999999995E-5     0.08678690586983329
5.12E-5                   0.086184399851555
5.13E-5                   0.08558189387464898
5.1399999999999996E-5     0.08497938793794432
5.15E-5                   0.08437688204027001
5.16E-5                   0.08377437618045508
5.1699999999999996E-5     0.08317187035732866
5.18E-5                   0.08256936456971967
5.1899999999999994E-5     0.08196685881645722
5.2E-5                    0.08136435309637031
5.21E-5                   0.0807813525667848
5.2199999999999995E-5     0.0802290068969842
5.23E-5                   0.07967666127976597
5.24E-5                   0.07912431571423545
5.2499999999999995E-5     0.07857197019949809
5.26E-5                   0.07801962473465912
5.27E-5                   0.07746727931882397
5.2799999999999996E-5     0.07691493395109798
5.29E-5                   0.07636258863058644
5.3E-5                    0.07581024335639469
5.3099999999999996E-5     0.07525789812762813
5.32E-5                   0.07470555294339198
5.3299999999999995E-5     0.07417454368712086
5.34E-5                   0.07366834591507017
5.35E-5                   0.0731621481743115
5.3599999999999995E-5     0.07265595046415087
5.37E-5                   0.07214975278389402
5.38E-5                   0.07164355513284693
5.3899999999999996E-5     0.07113735751031548
5.4E-5                    0.07063115991560553
5.41E-5                   0.07012496234802298
5.4199999999999996E-5     0.06961876480687375
5.43E-5                   0.06911256729146364
5.4399999999999994E-5     0.0686328246911596
5.4499999999999997E-5     0.06816294251561367
5.46E-5                   0.06769306036716036
5.4699999999999995E-5     0.06722317824524357
5.48E-5                   0.06675329614930713
5.49E-5                   0.06628341407879487
5.4999999999999995E-5     0.06581353203315078
5.51E-5                   0.06534365001181859
5.52E-5                   0.06487376801424223
5.5299999999999996E-5     0.06440388603986558
5.54E-5                   0.06393400408813242
5.55E-5                   0.06349719080495245
5.5599999999999996E-5     0.0630605566386703
5.57E-5                   0.06262392249579234
5.5799999999999994E-5     0.06218728837587644
5.59E-5                   0.06175065427848036
5.6E-5                    0.06131402020316197
5.6099999999999995E-5     0.06087738614947914
5.62E-5                   0.06044075211698963
5.63E-5                   0.060004118105251275
5.6399999999999995E-5     0.05956748411382192
5.65E-5                   0.059139605774910856
5.66E-5                   0.05873655063685222
5.6699999999999996E-5     0.05833349551428802
5.68E-5                   0.0579304404068668
5.69E-5                   0.05752738531423714
5.6999999999999996E-5     0.057124330236047675
5.71E-5                   0.05672127517194697
5.7199999999999994E-5     0.05631822012158365
5.73E-5                   0.05591516508460625
5.74E-5                   0.055512110060663394
5.7499999999999995E-5     0.05510905504940368
5.76E-5                   0.054720926192952435
5.77E-5                   0.054346200294313966
5.7799999999999995E-5     0.05397147441101477
5.79E-5                   0.05359674854277439
5.8E-5                    0.05322202268931253
5.8099999999999996E-5     0.05284729685034882
5.82E-5                   0.05247257102560288
5.8299999999999994E-5     0.05209784521479435
5.8399999999999997E-5     0.051723119417642856
5.85E-5                   0.05134839363386807
5.8599999999999995E-5     0.0509736678631896
5.87E-5                   0.05062105761413776
5.88E-5                   0.05027421959609344
5.8899999999999995E-5     0.049927381588027564
5.9E-5                    0.04958054358971702
5.91E-5                   0.04923370560093887
5.9199999999999996E-5     0.0488868676214701
5.93E-5                   0.04854002965108759
5.94E-5                   0.0481931916895684
5.9499999999999996E-5     0.04784635373668948
5.96E-5                   0.04749951579222779
5.9699999999999994E-5     0.04715418128145442
5.98E-5                   0.04683275851783302
5.99E-5                   0.046511335763483735
5.9999999999999995E-5     0.04618991301822917
6.01E-5                   0.04586849028189181
6.02E-5                   0.04554706755429424
6.0299999999999995E-5     0.04522564483525903
6.04E-5                   0.04490422212460869
6.05E-5                   0.04458279942216581
6.0599999999999996E-5     0.04426137672775294
6.07E-5                   0.043939954041192594
6.08E-5                   0.043626092862528935
6.0899999999999996E-5     0.04332791560423384
6.1E-5                    0.0430297383527827
6.11E-5                   0.042731561108033986
6.12E-5                   0.042433383869846145
6.13E-5                   0.04213520663807758
6.14E-5                   0.04183702941258676
6.149999999999999E-5      0.04153885219323217
6.159999999999999E-5      0.04124067497987214
6.17E-5                   0.04094249777236517
6.18E-5                   0.04064432057056969
6.19E-5                   0.04035919947624613
6.2E-5                    0.040083097941963686
6.209999999999999E-5      0.03980699641313162
6.22E-5                   0.03953089488963747
6.23E-5                   0.039254793371368855
6.24E-5                   0.03897869185821339
6.25E-5                   0.038702590350058685
6.26E-5                   0.03842648884679234
6.269999999999999E-5      0.038150387348301985
6.28E-5                   0.03787428585447515
6.29E-5                   0.037598184365199495
6.3E-5                    0.037339310630623054
6.31E-5                   0.03708329840079491
6.319999999999999E-5      0.036827286175483476
6.33E-5                   0.03657127395459892
6.34E-5                   0.03631526173805151
6.35E-5                   0.036059249525751506
6.36E-5                   0.03580323731760913
6.37E-5                   0.03554722511353464
6.379999999999999E-5      0.03529121291343831
6.39E-5                   0.0350352007172303
6.4E-5                    0.03478252509457498
6.41E-5                   0.03455348686605704
6.42E-5                   0.034324448640430216
6.429999999999999E-5      0.034095410417630485
6.44E-5                   0.03386637219759367
6.45E-5                   0.03363733398025574
6.46E-5                   0.0334082957655526
6.47E-5                   0.03317925755342017
6.48E-5                   0.03295021934379435
6.489999999999999E-5      0.03272118113661111
6.5E-5                    0.0324921429318063
6.51E-5                   0.03226310472931584
6.52E-5                   0.03203406652907567
6.53E-5                   0.0318050283310217
6.539999999999999E-5      0.03157599013508987
6.549999999999999E-5      0.03134695194121603