% Model:              20230225_JW_4_15.mph
% Version:            COMSOL 5.6.0.401
% Date:               Feb 25 2023, 20:33
% Dimension:          1
% Nodes:              1501
% Expressions:        1
% Description:        点图
% X                       Height
0                         17.725584016947796
1.0E-7                    17.732548920089364
2.0E-7                    17.7317993504084
3.0E-7                    17.704000899415053
4.0E-7                    17.668690862491452
5.0E-7                    17.629648954596775
6.0E-7                    17.58860073259698
7.0E-7                    17.539352377950635
8.0E-7                    17.47899725058821
9.0E-7                    17.411824657935608
1.0E-6                    17.34177717952223
1.1E-6                    17.266946317433046
1.2E-6                    17.18828722976826
1.2999999999999998E-6     17.10667727904876
1.4E-6                    17.022748349660443
1.5E-6                    16.93705696166482
1.6E-6                    16.84911967979316
1.6999999999999998E-6     16.760194357161417
1.8E-6                    16.669710639276847
1.9E-6                    16.57856984850335
2.0E-6                    16.48661175490383
2.1E-6                    16.394103017841275
2.2E-6                    16.301157722484724
2.3E-6                    16.207995294825
2.4E-6                    16.114623216621
2.4999999999999998E-6     16.02104207991106
2.5999999999999997E-6     15.927456615991296
2.7E-6                    15.833876837884445
2.8E-6                    15.740355380382042
2.8999999999999998E-6     15.646946074255062
3.0E-6                    15.553691591961158
3.1E-6                    15.4605846128502
3.2E-6                    15.367739373019326
3.2999999999999997E-6     15.275108139696883
3.3999999999999996E-6     15.182696475239828
3.5E-6                    15.090537324671368
3.6E-6                    14.998763779291265
3.6999999999999997E-6     14.907430494550232
3.8E-6                    14.816135600949108
3.9E-6                    14.72525301247473
4.0E-6                    14.634862275410478
4.1E-6                    14.544472939022494
4.2E-6                    14.45468523627432
4.2999999999999995E-6     14.364903290398157
4.4E-6                    14.275697808641784
4.5E-6                    14.187010000039399
4.6E-6                    14.098366189341075
4.7E-6                    14.01036642432824
4.8E-6                    13.922367303255273
4.9E-6                    13.835097750175057
4.9999999999999996E-6     13.748319264438715
5.0999999999999995E-6     13.661623764777454
5.199999999999999E-6      13.575462183770345
5.3E-6                    13.489301305850901
5.4E-6                    13.404007362824805
5.5E-6                    13.319143129673414
5.6E-6                    13.234428564616264
5.7E-6                    13.150295323632065
5.7999999999999995E-6     13.06616289943952
5.899999999999999E-6      12.98278169559447
6.0E-6                    12.89966520324978
6.1E-6                    12.816936545755322
6.2E-6                    12.735229185006016
6.3E-6                    12.653522334091608
6.4E-6                    12.57163977498151
6.5E-6                    12.489717234859585
6.5999999999999995E-6     12.408071808518583
6.699999999999999E-6      12.326946875736292
6.799999999999999E-6      12.245820139511581
6.9E-6                    12.171154041259218
7.0E-6                    12.097365929460729
7.1E-6                    12.016956035844455
7.2E-6                    11.933731184587906
7.2999999999999996E-6     11.857009091350742
7.3999999999999995E-6     11.781123767908376
7.499999999999999E-6      11.705095380036827
7.6E-6                    11.626470520973816
7.699999999999999E-6      11.551927168296467
7.8E-6                    11.476215540707582
7.899999999999999E-6      11.400248790752128
8.0E-6                    11.32540585703482
8.1E-6                    11.251019340220827
8.2E-6                    11.177269828288718
8.3E-6                    11.103278334451632
8.4E-6                    11.029724990075495
8.5E-6                    10.957322741317101
8.599999999999999E-6      10.884831785171524
8.7E-6                    10.812388653964566
8.8E-6                    10.740916162324051
8.9E-6                    10.669504456671534
9.0E-6                    10.598163466444099
9.1E-6                    10.527871415297282
9.2E-6                    10.457662365640594
9.299999999999999E-6      10.388056987256693
9.4E-6                    10.318885867792506
9.499999999999999E-6      10.250079818283673
9.6E-6                    10.1816708911985
9.7E-6                    10.113647665573561
9.8E-6                    10.046030298576824
9.9E-6                    9.978821631146474
9.999999999999999E-6      9.912006013944016
1.01E-5                   9.845611291868652
1.0199999999999999E-5     9.779596198017563
1.03E-5                   9.713966980255263
1.0399999999999999E-5     9.648716727904398
1.05E-5                   9.58398291574203
1.06E-5                   9.519416982725476
1.07E-5                   9.455488800935779
1.08E-5                   9.391719443086773
1.0899999999999999E-5     9.328517314365293
1.1E-5                    9.265572411517965
1.1099999999999999E-5     9.203003688583891
1.12E-5                   9.14090061097433
1.13E-5                   9.079062095471615
1.14E-5                   9.017762542006043
1.15E-5                   8.956616368736926
1.1599999999999999E-5     8.89611220084646
1.17E-5                   8.835932256899115
1.1799999999999999E-5     8.776400511201553
1.19E-5                   8.716868929673565
1.2E-5                    8.6573375368592
1.21E-5                   8.598833961020231
1.22E-5                   8.54059240321559
1.2299999999999999E-5     8.482351046997335
1.24E-5                   8.424438560167776
1.2499999999999999E-5     8.367458736915465
1.26E-5                   8.310479035793223
1.2699999999999999E-5     8.2534994779653
1.28E-5                   8.197453199361103
1.29E-5                   8.14176238641974
1.3E-5                    8.086071769898597
1.31E-5                   8.030613383172664
1.3199999999999999E-5     7.976157932425828
1.33E-5                   7.921702555838083
1.3399999999999999E-5     7.867247271631016
1.35E-5                   7.81359119463468
1.3599999999999999E-5     7.760362670982981
1.37E-5                   7.70713435873273
1.38E-5                   7.65404101242913
1.3899999999999999E-5     7.601982680693554
1.4E-5                    7.549924348295593
1.4099999999999999E-5     7.4978660309717835
1.42E-5                   7.446550547557093
1.4299999999999999E-5     7.395775732400823
1.44E-5                   7.345001200108284
1.45E-5                   7.294264666926329
1.4599999999999999E-5     7.244377667864059
1.47E-5                   7.1944905143678906
1.4799999999999999E-5     7.144603220408538
1.49E-5                   7.095592099360332
1.4999999999999999E-5     7.047436331639745
1.51E-5                   6.999281062744945
1.52E-5                   6.951126304568093
1.53E-5                   6.902872826026417
1.5399999999999998E-5     6.854615742983044
1.55E-5                   6.806358143775657
1.56E-5                   6.759565374615719
1.57E-5                   6.714688544963309
1.5799999999999998E-5     6.669812804604933
1.59E-5                   6.624938160579461
1.6E-5                    6.577389117034151
1.61E-5                   6.529531761934901
1.62E-5                   6.481672863816486
1.63E-5                   6.436056594720644
1.64E-5                   6.394417663058182
1.6499999999999998E-5     6.352780472583058
1.66E-5                   6.3101485196580995
1.67E-5                   6.267490486378234
1.68E-5                   6.2230604195441215
1.69E-5                   6.1787327563588885
1.7E-5                    6.1363094210037055
1.71E-5                   6.094252092857301
1.7199999999999998E-5     6.051545339781074
1.73E-5                   6.009978116993902
1.74E-5                   5.968623199700041
1.75E-5                   5.926823079631972
1.76E-5                   5.8852643947689955
1.77E-5                   5.845042124602942
1.78E-5                   5.804179811644016
1.7899999999999998E-5     5.763929424674767
1.8E-5                    5.72402462393363
1.81E-5                   5.68409561541992
1.82E-5                   5.6446359082348465
1.8299999999999998E-5     5.605401150382357
1.84E-5                   5.566361640087138
1.85E-5                   5.527622141347883
1.8599999999999998E-5     5.489170529439383
1.87E-5                   5.45091434358685
1.88E-5                   5.412968348511769
1.89E-5                   5.3752564631312065
1.8999999999999998E-5     5.337799286474385
1.91E-5                   5.3006642409403
1.92E-5                   5.263783782988688
1.9299999999999998E-5     5.227138385964646
1.94E-5                   5.190726060564904
1.95E-5                   5.154628696669896
1.96E-5                   5.118753581494732
1.9699999999999998E-5     5.083094440613027
1.98E-5                   5.047663961389112
1.99E-5                   5.012538376669782
1.9999999999999998E-5     4.977623448655447
2.01E-5                   4.942917487994006
2.02E-5                   4.9084543702585535
2.03E-5                   4.874269195135238
2.0399999999999998E-5     4.8403750975769535
2.05E-5                   4.806701862803823
2.06E-5                   4.7730286629295176
2.07E-5                   4.739864267628109
2.0799999999999997E-5     4.706798652597716
2.09E-5                   4.673817892709279
2.1E-5                    4.641362431057098
2.1099999999999998E-5     4.60890699652539
2.12E-5                   4.576842826158019
2.13E-5                   4.5452753629890665
2.14E-5                   4.513707924395789
2.1499999999999997E-5     4.482140513748621
2.16E-5                   4.450573134424142
2.17E-5                   4.41905600788484
2.1799999999999998E-5     4.388635478312663
2.19E-5                   4.358214964572782
2.2E-5                    4.327794469655025
2.21E-5                   4.297373996554427
2.2199999999999998E-5     4.266953548271123
2.23E-5                   4.237249992691165
2.24E-5                   4.207937640560961
2.2499999999999998E-5     4.178625305772087
2.26E-5                   4.149312991007631
2.27E-5                   4.120000698954923
2.28E-5                   4.090958513395151
2.2899999999999998E-5     4.062726025848516
2.3E-5                    4.034493552837517
2.31E-5                   4.006261096744985
2.3199999999999998E-5     3.978028659957224
2.33E-5                   3.949796244863961
2.34E-5                   3.9224463855413547
2.35E-5                   3.895248263683708
2.3599999999999998E-5     3.8680501555180498
2.37E-5                   3.8408520631783363
2.38E-5                   3.813653988801431
2.3899999999999998E-5     3.7869092069207086
2.4E-5                    3.7607041596377537
2.41E-5                   3.7344991247921335
2.42E-5                   3.708294104291944
2.4299999999999998E-5     3.682089100047641
2.44E-5                   3.65594227627617
2.45E-5                   3.6307125118624026
2.4599999999999998E-5     3.605482756479361
2.4699999999999997E-5     3.580253011816202
2.48E-5                   3.5550232795640935
2.49E-5                   3.5297935614161835
2.4999999999999998E-5     3.505167663330518
2.51E-5                   3.4808489468203696
2.52E-5                   3.4565302414181227
2.53E-5                   3.4322115486565314
2.5399999999999997E-5     3.4078928700699467
2.55E-5                   3.3838176263057878
2.56E-5                   3.3604141469487256
2.5699999999999998E-5     3.337010673878759
2.58E-5                   3.313607208429079
2.59E-5                   3.290203751934245
2.6E-5                    3.266800305730156
2.6099999999999997E-5     3.2441335196153656
2.62E-5                   3.221577643978404
2.63E-5                   3.1990217791979667
2.6399999999999998E-5     3.176465926509404
2.65E-5                   3.153910087149164
2.66E-5                   3.1317459020210965
2.67E-5                   3.1100192630357495
2.6799999999999998E-5     3.0882926270569273
2.69E-5                   3.0665659951354733
2.7E-5                    3.044839368323146
2.7099999999999998E-5     3.0231767767679765
2.7199999999999997E-5     3.002298325661716
2.73E-5                   2.9814198853230174
2.74E-5                   2.9605414567404997
2.7499999999999998E-5     2.939663040903554
2.76E-5                   2.9187846388023333
2.77E-5                   2.8983433642422383
2.7799999999999998E-5     2.878109058895107
2.7899999999999997E-5     2.857874753288188
2.8E-5                    2.8376404482655246
2.81E-5                   2.817406144671756
2.8199999999999998E-5     2.7974562145235757
2.83E-5                   2.7782309302914854
2.84E-5                   2.759005656843512
2.8499999999999998E-5     2.739780394932938
2.8599999999999997E-5     2.7205551453136096
2.87E-5                   2.701329908739923
2.88E-5                   2.6823444552284657
2.8899999999999998E-5     2.663390159391753
2.9E-5                    2.6444358653928988
2.91E-5                   2.6254815739686657
2.9199999999999998E-5     2.606527285856178
2.9299999999999997E-5     2.5881550872973595
2.94E-5                   2.5703931840490535
2.95E-5                   2.552631284603627
2.9599999999999998E-5     2.5348693894566154
2.97E-5                   2.517107499103887
2.98E-5                   2.499600322164729
2.99E-5                   2.4821839934576295
2.9999999999999997E-5     2.4647676776081666
3.01E-5                   2.44735137526883
3.02E-5                   2.430043133226138
3.0299999999999998E-5     2.4127732740266246
3.04E-5                   2.3955034090274716
3.05E-5                   2.3785434150571
3.06E-5                   2.362100336269079
3.07E-5                   2.345657268201074
3.0799999999999996E-5     2.329191499756317
3.09E-5                   2.3127020294824607
3.1E-5                    2.296212560898727
3.11E-5                   2.2800303221960188
3.12E-5                   2.263861734209184
3.13E-5                   2.247863086350536
3.14E-5                   2.2319436114582416
3.15E-5                   2.2162306612479967
3.1599999999999996E-5     2.2006367025546614
3.17E-5                   2.185196650297342
3.18E-5                   2.1698650200716227
3.1899999999999996E-5     2.1545904327297802
3.2E-5                    2.1393646369964956
3.21E-5                   2.124296791231331
3.22E-5                   2.1093925475514888
3.23E-5                   2.0945703579589052
3.24E-5                   2.079851137995524
3.25E-5                   2.0651982866427607
3.26E-5                   2.0506467771546437
3.2699999999999995E-5     2.036189110097226
3.28E-5                   2.0219072751120053
3.29E-5                   2.007675904293044
3.2999999999999996E-5     1.9935621415199674
3.31E-5                   1.979499372281048
3.32E-5                   1.9655875667188603
3.3299999999999996E-5     1.9517211296937993
3.34E-5                   1.938030891334211
3.35E-5                   1.924367292966887
3.36E-5                   1.9108467217183
3.37E-5                   1.8973491786195127
3.38E-5                   1.8840393468246324
3.39E-5                   1.8707466997886948
3.4E-5                    1.8577161780858529
3.4099999999999995E-5     1.8446856581195048
3.42E-5                   1.8316551401199828
3.43E-5                   1.8186246243176905
3.4399999999999996E-5     1.8059484463413267
3.45E-5                   1.7932847288939855
3.46E-5                   1.780621012937441
3.4699999999999996E-5     1.7679572986845387
3.48E-5                   1.7556119472273357
3.49E-5                   1.743313939503586
3.5E-5                    1.731015933209767
3.51E-5                   1.718717928539172
3.52E-5                   1.7066872312701928
3.53E-5                   1.6947341150846076
3.54E-5                   1.6827810001910195
3.5499999999999996E-5     1.6708278867682134
3.56E-5                   1.6591082391561511
3.57E-5                   1.6474986763603772
3.5799999999999996E-5     1.6358891147314634
3.59E-5                   1.6242795544322417
3.6E-5                    1.612861865614066
3.6099999999999997E-5     1.6015808072806808
3.62E-5                   1.5902997499706446
3.63E-5                   1.5790186938337938
3.64E-5                   1.5678950235824947
3.65E-5                   1.5569360883145855
3.6599999999999995E-5     1.5459771540655551
3.67E-5                   1.5350182209726384
3.68E-5                   1.5242405641251284
3.6899999999999996E-5     1.513742770493017
3.7E-5                    1.5032449776400056
3.71E-5                   1.492747185686615
3.7199999999999996E-5     1.4822493947533901
3.73E-5                   1.4717516049608959
3.74E-5                   1.461253816429723
3.75E-5                   1.4507560292804846
3.76E-5                   1.4403774088737256
3.77E-5                   1.430469177119197
3.78E-5                   1.420560945679137
3.79E-5                   1.4106527146548442
3.7999999999999995E-5     1.400744484147637
3.81E-5                   1.390836254258851
3.82E-5                   1.38092802508984
3.8299999999999996E-5     1.3710197967419753
3.84E-5                   1.3611177692297798
3.85E-5                   1.3517654855501149
3.8599999999999996E-5     1.342413202226164
3.87E-5                   1.333060919343137
3.88E-5                   1.3237086369862627
3.89E-5                   1.3143563552407795
3.9E-5                    1.3050040741919402
3.9099999999999995E-5     1.2956517939250114
3.92E-5                   1.2862995145252698
3.93E-5                   1.277379117140119
3.9399999999999995E-5     1.26855341022575
3.95E-5                   1.2597277036790158
3.96E-5                   1.2509019975713866
3.9699999999999996E-5     1.2420762919743435
3.98E-5                   1.2332505869593748
3.99E-5                   1.2244248825979804
3.9999999999999996E-5     1.2155991789616702
4.01E-5                   1.2070853494796656
4.02E-5                   1.1987553134191395
4.03E-5                   1.1904252776051925
4.04E-5                   1.1820952420980584
4.0499999999999995E-5     1.1737652069579796
4.06E-5                   1.1654351722452054
4.07E-5                   1.1571051380199924
4.0799999999999996E-5     1.1487751043426062
4.09E-5                   1.1406500050745483
4.1E-5                    1.1327876185577472
4.1099999999999996E-5     1.1249252323072385
4.12E-5                   1.1170628463735721
4.13E-5                   1.1092004608073043
4.14E-5                   1.1013380756589977
4.15E-5                   1.093475690979218
4.1599999999999995E-5     1.0856133068185387
4.17E-5                   1.0778605554540943
4.18E-5                   1.07044158211959
4.1899999999999995E-5     1.0630226089307018
4.2E-5                    1.0556036359299086
4.21E-5                   1.0481846631596954
4.2199999999999996E-5     1.0407656906625506
4.23E-5                   1.0333467184809657
4.24E-5                   1.0259277466574377
4.2499999999999996E-5     1.0185321255081456
4.26E-5                   1.011528108161555
4.27E-5                   1.0045240910075206
4.28E-5                   0.9975200740818456
4.29E-5                   0.990516057420335
4.2999999999999995E-5     0.9835120410587984
4.31E-5                   0.9765080250330471
4.32E-5                   0.9695040093788967
4.3299999999999995E-5     0.9624999941321651
4.34E-5                   0.9558387127100121
4.35E-5                   0.9492307860496945
4.3599999999999996E-5     0.9426228595001395
4.37E-5                   0.9360149330912804
4.38E-5                   0.9294070068530559
4.3899999999999996E-5     0.9227990808154055
4.4E-5                    0.9161911550082699
4.41E-5                   0.9095832294615942
4.42E-5                   0.9032246954278877
4.43E-5                   0.896986611420262
4.4399999999999995E-5     0.8907485275738204
4.45E-5                   0.884510443913922
4.46E-5                   0.8782723604659294
4.4699999999999996E-5     0.8720342772552063
4.48E-5                   0.865796194307117
4.49E-5                   0.8595581116470288
4.4999999999999996E-5     0.8534895380779386
4.51E-5                   0.8476021559790121
4.52E-5                   0.8417147739560236
4.5299999999999997E-5     0.8358273920300934
4.54E-5                   0.8299400102223421
4.5499999999999995E-5     0.824052628553893
4.56E-5                   0.8181652470458686
4.57E-5                   0.8122778657193946
4.5799999999999995E-5     0.8065325929963113
4.59E-5                   0.8011312722087028
4.6E-5                    0.7957299515839985
4.6099999999999996E-5     0.7903286311385784
4.62E-5                   0.7849273108888226
4.63E-5                   0.7795259908511126
4.6399999999999996E-5     0.7741246710418309
4.65E-5                   0.76872335147736
4.66E-5                   0.7633220321740841
4.67E-5                   0.7579207131483876
4.68E-5                   0.7525193944166556
4.6899999999999995E-5     0.7471180759952746
4.7E-5                    0.7417167579006302
4.71E-5                   0.7363154401491101
4.7199999999999995E-5     0.7309141227571031
4.73E-5                   0.7255128057409969
4.74E-5                   0.7201114891171808
4.7499999999999996E-5     0.7152472113068055
4.76E-5                   0.7104357774942087
4.77E-5                   0.705624343569101
4.7799999999999996E-5     0.7008129095430632
4.79E-5                   0.6960014754276752
4.8E-5                    0.691190041234519
4.81E-5                   0.6863786069751769
4.82E-5                   0.6815671726612309
4.8299999999999995E-5     0.6767557383042647
4.84E-5                   0.6719443039158615
4.85E-5                   0.6671328695076058
4.8599999999999995E-5     0.6623214350910823
4.87E-5                   0.657510000677876
4.88E-5                   0.6526985662795726
4.8899999999999996E-5     0.6478871319077592
4.9E-5                    0.6430756975740213
4.91E-5                   0.6385421579329317
4.9199999999999997E-5     0.6342565773202676
4.93E-5                   0.6299709967439417
4.9399999999999995E-5     0.6256854162121802
4.95E-5                   0.6213998357332078
4.96E-5                   0.6171142553152515
4.9699999999999995E-5     0.6128286749665377
4.98E-5                   0.6085430946952929
4.99E-5                   0.604257514509744
4.9999999999999996E-5     0.5999719344181186
5.01E-5                   0.5956863544286437
5.02E-5                   0.5914007745495474
5.0299999999999996E-5     0.5871151947890579
5.04E-5                   0.5828296151554028
5.05E-5                   0.5785440356568108
5.06E-5                   0.574258456301511
5.07E-5                   0.5700365750862258
5.0799999999999995E-5     0.5661857594264161
5.09E-5                   0.5623349438218499
5.1E-5                    0.5584841282784558
5.1099999999999995E-5     0.5546333128021618
5.12E-5                   0.550782497398895
5.13E-5                   0.5469316820745843
5.1399999999999996E-5     0.5430808668351581
5.15E-5                   0.5392300516865441
5.16E-5                   0.5353792366346716
5.1699999999999996E-5     0.5315284216854695
5.18E-5                   0.5276776068448659
5.1899999999999994E-5     0.5238267921187905
5.2E-5                    0.5199759775131715
5.21E-5                   0.5162559895552973
5.2199999999999995E-5     0.512741611970661
5.23E-5                   0.5092272343581327
5.24E-5                   0.5057128567221731
5.2499999999999995E-5     0.5021984790672448
5.26E-5                   0.4986841013978087
5.27E-5                   0.49516972371832685
5.2799999999999996E-5     0.4916553460332613
5.29E-5                   0.48814096834707354
5.3E-5                    0.4846265906642262
5.3099999999999996E-5     0.48111221298918133
5.32E-5                   0.47759783532640093
5.3299999999999995E-5     0.4742080728403735
5.34E-5                   0.47096322506090155
5.35E-5                   0.46771837732158905
5.3599999999999995E-5     0.4644735296260255
5.37E-5                   0.46122868197779987
5.38E-5                   0.4579838343805017
5.3899999999999996E-5     0.4547389868377208
5.4E-5                    0.4514941393530462
5.41E-5                   0.44824929193006785
5.4199999999999996E-5     0.44500444457237565
5.43E-5                   0.4417595972835588
5.4399999999999994E-5     0.4386902172269999
5.4499999999999997E-5     0.43568623815585794
5.46E-5                   0.4326822590724576
5.4699999999999995E-5     0.42967827997960045
5.48E-5                   0.4266743008800873
5.49E-5                   0.4236703217767194
5.4999999999999995E-5     0.4206663426722985
5.51E-5                   0.4176623635696256
5.52E-5                   0.4146583844715025
5.5299999999999996E-5     0.4116544053807305
5.54E-5                   0.4086504263001111
5.55E-5                   0.40586383028284967
5.5599999999999996E-5     0.4030784115865354
5.57E-5                   0.4002929929110783
5.5799999999999994E-5     0.39750757425872846
5.59E-5                   0.39472215563173546
5.6E-5                    0.3919367370323494
5.6099999999999995E-5     0.38915131846282064
5.62E-5                   0.3863658999253986
5.63E-5                   0.3835804814223338
5.6399999999999995E-5     0.3807950629558763
5.65E-5                   0.3780629200771356
5.66E-5                   0.37548181926388896
5.6699999999999996E-5     0.3729007184476319
5.68E-5                   0.37031961763014976
5.69E-5                   0.3677385168132279
5.6999999999999996E-5     0.3651574159986518
5.71E-5                   0.36257631518820665
5.7199999999999994E-5     0.3599952143836782
5.73E-5                   0.3574141135868515
5.74E-5                   0.35483301279951207
5.7499999999999995E-5     0.352251912023446
5.76E-5                   0.34976994519879934
5.77E-5                   0.34737699579148607
5.7799999999999995E-5     0.3449840463919642
5.79E-5                   0.3425910970016603
5.8E-5                    0.3401981476220007
5.8099999999999996E-5     0.33780519825441196
5.82E-5                   0.33541224890032056
5.8299999999999994E-5     0.33301929956115317
5.8399999999999997E-5     0.330626350238336
5.85E-5                   0.3282334009332959
5.8599999999999995E-5     0.3258404516474595
5.87E-5                   0.3235870202569748
5.88E-5                   0.3213700034949454
5.8899999999999995E-5     0.31915298673612674
5.9E-5                    0.3169359699816474
5.91E-5                   0.31471895323263643
5.9199999999999996E-5     0.3125019364902229
5.93E-5                   0.3102849197555354
5.94E-5                   0.30806790302970305
5.9499999999999996E-5     0.30585088631385476
5.96E-5                   0.3036338696091193
5.9699999999999994E-5     0.30142638710232444
5.98E-5                   0.29937054427746207
5.99E-5                   0.29731470145369077
5.9999999999999995E-5     0.2952588586319175
6.01E-5                   0.29320301581304875
6.02E-5                   0.29114717299799187
6.0299999999999995E-5     0.28909133018765387
6.04E-5                   0.28703548738294155
6.05E-5                   0.2849796445847618
6.0599999999999996E-5     0.282923801794022
6.07E-5                   0.2808679590116288
6.08E-5                   0.27886132356387744
6.0899999999999996E-5     0.2769567529769576
6.1E-5                    0.27505218239507473
6.11E-5                   0.2731476118189433
6.12E-5                   0.2712430412492771
6.13E-5                   0.26933847068679057
6.14E-5                   0.26743390013219787
6.149999999999999E-5      0.2655293295862134
6.159999999999999E-5      0.26362475904955074
6.17E-5                   0.26172018852292456
6.18E-5                   0.2598156180070489
6.19E-5                   0.2579931254570671
6.2E-5                    0.2562273348686568
6.209999999999999E-5      0.2544615442781835
6.22E-5                   0.2526957536862222
6.23E-5                   0.2509299630933483
6.24E-5                   0.24916417250013737
6.25E-5                   0.24739838190716446
6.26E-5                   0.2456325913150051
6.269999999999999E-5      0.24386680072423472
6.28E-5                   0.24210101013542834
6.29E-5                   0.24033521954916154
6.3E-5                    0.23868019852637723
6.31E-5                   0.23704357614639723
6.319999999999999E-5      0.23540695377337795
6.33E-5                   0.2337703314077721
6.34E-5                   0.23213370905003303
6.35E-5                   0.23049708670061406
6.36E-5                   0.22886046435996837
6.37E-5                   0.22722384202854912
6.379999999999999E-5      0.22558721970680978
6.39E-5                   0.2239505973952031
6.4E-5                    0.2223354529436335
6.41E-5                   0.22087246486166323
6.42E-5                   0.2194094767813982
6.429999999999999E-5      0.21794648870316438
6.44E-5                   0.21648350062728705
6.45E-5                   0.21502051255409205
6.46E-5                   0.2135575244839051
6.47E-5                   0.2120945364170519
6.48E-5                   0.2106315483538581
6.489999999999999E-5      0.20916856029464967
6.5E-5                    0.2077055722397519
6.51E-5                   0.20624258418949062
6.52E-5                   0.2047795961441916
6.53E-5                   0.20331660810418054
6.539999999999999E-5      0.20185362006978325
6.549999999999999E-5      0.20039063204132518
6.56E-5                   0.19892764401913215
6.57E-5                   0.19746465600352983
6.58E-5                   0.19600166799484398
6.59E-5                   0.19453867999340033
6.599999999999999E-5      0.19307569199952465
6.61E-5                   0.19161270401354247
6.62E-5                   0.19028493538439506
6.63E-5                   0.18902808495787185
6.64E-5                   0.18777123452856215