% Model:              20230225_JW_4_20.mph
% Version:            COMSOL 5.6.0.401
% Date:               Feb 25 2023, 20:47
% Dimension:          1
% Nodes:              1501
% Expressions:        1
% Description:        点图
% X                       Height
0                         0.2248088857528066
1.0E-7                    0.22494013998813306
2.0E-7                    0.2180343370655286
3.0E-7                    0.22867460735246795
4.0E-7                    0.23903442725767315
5.0E-7                    0.24748157826375092
6.0E-7                    0.2540708446152864
7.0E-7                    0.25816473585818034
8.0E-7                    0.2630041939023411
9.0E-7                    0.26349985679586696
1.0E-6                    0.26497311017723224
1.1E-6                    0.2652313211123459
1.2E-6                    0.26553860916920125
1.2999999999999998E-6     0.26453163208413655
1.4E-6                    0.26345520905499176
1.5E-6                    0.262000289152456
1.6E-6                    0.26022371356540913
1.6999999999999998E-6     0.2583324355386249
1.8E-6                    0.25641601191060986
1.9E-6                    0.2542438299250415
2.0E-6                    0.25203216630363884
2.1E-6                    0.2496946506805311
2.2E-6                    0.24737350753732312
2.3E-6                    0.24498471210763206
2.4E-6                    0.2426230769697916
2.4999999999999998E-6     0.24022103950596924
2.5999999999999997E-6     0.23781141605629244
2.7E-6                    0.2354503253358063
2.8E-6                    0.233128042373363
2.8999999999999998E-6     0.23081603568022757
3.0E-6                    0.22867383733966068
3.1E-6                    0.22598114078206227
3.2E-6                    0.22115265843430448
3.2999999999999997E-6     0.22040771850785412
3.3999999999999996E-6     0.219646088917127
3.5E-6                    0.21695691685258
3.6E-6                    0.21493094272419416
3.6999999999999997E-6     0.21224184870645346
3.8E-6                    0.2103004441769651
3.9E-6                    0.20823865836680167
4.0E-6                    0.2062711524695077
4.1E-6                    0.20397424126735694
4.2E-6                    0.2018606873425193
4.2999999999999995E-6     0.19981136596866114
4.4E-6                    0.19776386777933916
4.5E-6                    0.1957345548415279
4.6E-6                    0.19372410908726165
4.7E-6                    0.19172886011505005
4.8E-6                    0.1897551855308723
4.9E-6                    0.18835175750797226
4.9999999999999996E-6     0.18560504941353947
5.0999999999999995E-6     0.18403987075412054
5.199999999999999E-6      0.18212906567512321
5.3E-6                    0.1799731175220889
5.4E-6                    0.17843916013310712
5.5E-6                    0.17659477045493951
5.6E-6                    0.17476373196310613
5.7E-6                    0.17288236973845195
5.7999999999999995E-6     0.17109468042405251
5.899999999999999E-6      0.16930812479178253
6.0E-6                    0.16715155706088067
6.1E-6                    0.16581114776372574
6.2E-6                    0.16410634274875074
6.3E-6                    0.1624687688346494
6.4E-6                    0.16089885001603585
6.5E-6                    0.15920020109633543
6.5999999999999995E-6     0.1575023571304008
6.699999999999999E-6      0.1558691292489194
6.799999999999999E-6      0.1547426293041358
6.9E-6                    0.15253106295641775
7.0E-6                    0.15114294213402368
7.1E-6                    0.14958002026588677
7.2E-6                    0.14808163394383642
7.2999999999999996E-6     0.14648200555615748
7.3999999999999995E-6     0.14498793942515828
7.499999999999999E-6      0.14350422523049738
7.6E-6                    0.1419854390049297
7.699999999999999E-6      0.14039773832101818
7.8E-6                    0.13912168812577683
7.899999999999999E-6      0.13765017510797525
8.0E-6                    0.13622953318447012
8.1E-6                    0.13486887838064443
8.2E-6                    0.13353637117759454
8.3E-6                    0.13210969690652408
8.4E-6                    0.1307379527288115
8.5E-6                    0.12940486776297577
8.599999999999999E-6      0.12808641069267718
8.7E-6                    0.12662513922010224
8.8E-6                    0.1255606718202118
8.9E-6                    0.12421733395226482
9.0E-6                    0.12293146020266876
9.1E-6                    0.12163749847397967
9.2E-6                    0.12040824997610645
9.299999999999999E-6      0.11912165843652794
9.4E-6                    0.11788897057763474
9.499999999999999E-6      0.11666696178798189
9.6E-6                    0.1155405661753908
9.7E-6                    0.11418358604139929
9.8E-6                    0.113151707820232
9.9E-6                    0.11195698615886636
9.999999999999999E-6      0.11083059775802714
1.01E-5                   0.10963583871345774
1.0199999999999999E-5     0.10854815856095615
1.03E-5                   0.1074146086046261
1.0399999999999999E-5     0.10629589314294079
1.05E-5                   0.105205017096806
1.06E-5                   0.1041345006874394
1.07E-5                   0.10304864462468609
1.08E-5                   0.10199738792298729
1.0899999999999999E-5     0.10093960457418681
1.1E-5                    0.09990478881954323
1.1099999999999999E-5     0.09887191609119966
1.12E-5                   0.09785673724889002
1.13E-5                   0.09684575262162827
1.14E-5                   0.09584968727788044
1.15E-5                   0.09486236104610808
1.1599999999999999E-5     0.09388280423642657
1.17E-5                   0.09292014929183626
1.1799999999999999E-5     0.0919388061260472
1.19E-5                   0.09059416509917043
1.2E-5                    0.08993554649385921
1.21E-5                   0.08907322585361374
1.22E-5                   0.08827188013748813
1.2299999999999999E-5     0.08735613705666692
1.24E-5                   0.08640633712554098
1.2499999999999999E-5     0.08553688517385594
1.26E-5                   0.08462861092520667
1.2699999999999999E-5     0.08376961101093755
1.28E-5                   0.0829306360265704
1.29E-5                   0.0820341966767414
1.3E-5                    0.08123459510727882
1.31E-5                   0.08037255021987387
1.3199999999999999E-5     0.07956414958312817
1.33E-5                   0.07874119197701551
1.3399999999999999E-5     0.07797004765175578
1.35E-5                   0.07714779590766645
1.3599999999999999E-5     0.07634151798252696
1.37E-5                   0.07555097590962205
1.38E-5                   0.07475700644548099
1.3899999999999999E-5     0.07401133247205008
1.4E-5                    0.07323507332736845
1.4099999999999999E-5     0.0724793425413267
1.42E-5                   0.07173311362059424
1.4299999999999999E-5     0.07099671034194201
1.44E-5                   0.07025704185276069
1.45E-5                   0.06954420730070456
1.4599999999999999E-5     0.06881714868258737
1.47E-5                   0.06811636308643078
1.4799999999999999E-5     0.06741054927477953
1.49E-5                   0.06671773547839478
1.4999999999999999E-5     0.06603073241164849
1.51E-5                   0.06535021083770076
1.52E-5                   0.0646692195331781
1.53E-5                   0.06400370676345422
1.5399999999999998E-5     0.06338469561229002
1.55E-5                   0.06270866589990215
1.56E-5                   0.062052118753213564
1.57E-5                   0.06139361552923914
1.5799999999999998E-5     0.060779720732277394
1.59E-5                   0.06016560413064144
1.6E-5                    0.059544180701896314
1.61E-5                   0.058925648958022304
1.62E-5                   0.05830647329750334
1.63E-5                   0.05772299375280414
1.64E-5                   0.05712650573424141
1.6499999999999998E-5     0.056532042466503875
1.66E-5                   0.05594903681154635
1.67E-5                   0.05537426170765136
1.68E-5                   0.05479936266342136
1.69E-5                   0.054237253337302296
1.7E-5                    0.05367801557022297
1.71E-5                   0.053124199084926035
1.7199999999999998E-5     0.05257947389097163
1.73E-5                   0.05203555328702758
1.74E-5                   0.0515018556740441
1.75E-5                   0.050967461297026846
1.76E-5                   0.05044584412341154
1.77E-5                   0.04992459234067843
1.78E-5                   0.04942199245941362
1.7899999999999998E-5     0.0488612283677459
1.8E-5                    0.048387321492372085
1.81E-5                   0.04789246228600198
1.82E-5                   0.0474003621529337
1.8299999999999998E-5     0.04691879305802085
1.84E-5                   0.04643109373948786
1.85E-5                   0.04595367897813223
1.8599999999999998E-5     0.04547824264554073
1.87E-5                   0.04501115472663443
1.88E-5                   0.044548057025825226
1.89E-5                   0.04408512148543633
1.8999999999999998E-5     0.043636147970557905
1.91E-5                   0.04318350372835117
1.92E-5                   0.04274040700615871
1.9299999999999998E-5     0.04229817022778662
1.94E-5                   0.04186500624564262
1.95E-5                   0.041431511287947545
1.96E-5                   0.04100592223294579
1.9699999999999998E-5     0.040583368986477186
1.98E-5                   0.04016325546196398
1.99E-5                   0.03974095219956763
1.9999999999999998E-5     0.03932263050678192
2.01E-5                   0.03892227540615752
2.02E-5                   0.038526711995923564
2.03E-5                   0.03813453593384607
2.0399999999999998E-5     0.03774374236236985
2.05E-5                   0.037356265889724787
2.06E-5                   0.03696520670051422
2.07E-5                   0.03658748211448619
2.0799999999999997E-5     0.03621254357009145
2.09E-5                   0.03583640643242916
2.1E-5                    0.035470699561521137
2.1099999999999998E-5     0.035103085029336775
2.12E-5                   0.03474286135639002
2.13E-5                   0.034383954282550165
2.14E-5                   0.03403033970627195
2.1499999999999997E-5     0.03368022849860661
2.16E-5                   0.033330617859861675
2.17E-5                   0.032994897044967254
2.1799999999999998E-5     0.032648172000380546
2.19E-5                   0.03231259226122478
2.2E-5                    0.0319828083325319
2.21E-5                   0.031654474141382775
2.2199999999999998E-5     0.03132446011503778
2.23E-5                   0.030999589599266346
2.24E-5                   0.030680369369661453
2.2499999999999998E-5     0.030362909182958347
2.26E-5                   0.030050846016962483
2.27E-5                   0.02974221006157713
2.28E-5                   0.029433574318163187
2.2899999999999998E-5     0.02913234807117239
2.3E-5                    0.028832133055028002
2.31E-5                   0.02853554045648544
2.3199999999999998E-5     0.028240609558334868
2.33E-5                   0.027949582221183464
2.34E-5                   0.02766259904057866
2.35E-5                   0.02737723137761193
2.3599999999999998E-5     0.0270956916430751
2.37E-5                   0.02681486867556787
2.38E-5                   0.026540328773037733
2.3899999999999998E-5     0.02626578902578968
2.4E-5                    0.025996351219138913
2.41E-5                   0.02572743050649388
2.42E-5                   0.025463223656507786
2.4299999999999998E-5     0.025200908707735493
2.44E-5                   0.02494139628954839
2.45E-5                   0.02468447892013406
2.4599999999999998E-5     0.02442950787620312
2.4699999999999997E-5     0.02417858214623622
2.48E-5                   0.023928424520034585
2.49E-5                   0.023683386421267483
2.4999999999999998E-5     0.023438348426092385
2.51E-5                   0.023197191751066434
2.52E-5                   0.022956300300627612
2.53E-5                   0.022723212440712633
2.5399999999999997E-5     0.022490740708789383
2.55E-5                   0.022258948717131768
2.56E-5                   0.02202734821920639
2.5699999999999998E-5     0.02179953261592599
2.58E-5                   0.021576892043079915
2.59E-5                   0.021350372699052846
2.6E-5                    0.021129084480771637
2.6099999999999997E-5     0.020913194865743886
2.62E-5                   0.020699319249619496
2.63E-5                   0.020484128822874655
2.6399999999999998E-5     0.020273814526964425
2.65E-5                   0.020064395590161828
2.66E-5                   0.01985737972860502
2.67E-5                   0.01965376044581836
2.6799999999999998E-5     0.01945073900713934
2.69E-5                   0.01925076056525532
2.7E-5                    0.019052293067485616
2.7099999999999998E-5     0.018855694106415122
2.7199999999999997E-5     0.018661810180239376
2.73E-5                   0.018469474563626555
2.74E-5                   0.018279281698455968
2.7499999999999998E-5     0.018091083144343247
2.76E-5                   0.017904512001631498
2.77E-5                   0.017720740196370828
2.7799999999999998E-5     0.017534592973491053
2.7899999999999997E-5     0.017358270419939804
2.8E-5                    0.01717486050608094
2.81E-5                   0.016997844631118128
2.8199999999999998E-5     0.016824884067206062
2.83E-5                   0.016650308732293305
2.84E-5                   0.016479652440206712
2.8499999999999998E-5     0.016309261713267166
2.8599999999999997E-5     0.016141219172658372
2.87E-5                   0.015975590730574186
2.88E-5                   0.01581064903750216
2.8899999999999998E-5     0.01564817833567704
2.9E-5                    0.015486683888927872
2.91E-5                   0.015327239829085623
2.9199999999999998E-5     0.01516939013249915
2.9299999999999997E-5     0.015013089114245589
2.94E-5                   0.014858444648287098
2.95E-5                   0.014705337518629288
2.9599999999999998E-5     0.014553918875016177
2.97E-5                   0.014403954030547299
2.98E-5                   0.014254724208698132
2.99E-5                   0.014108523932090541
2.9999999999999997E-5     0.013961156694380174
3.01E-5                   0.013820310561537066
3.02E-5                   0.013676720752469366
3.0299999999999998E-5     0.01353392014199962
3.04E-5                   0.013395437047371289
3.05E-5                   0.013256993995465033
3.06E-5                   0.013121028577871952
3.07E-5                   0.012985342664489625
3.0799999999999996E-5     0.012851589780704352
3.09E-5                   0.012719093378246112
3.1E-5                    0.012588655128044999
3.11E-5                   0.012458379578958548
3.12E-5                   0.012330470589122303
3.13E-5                   0.01220353372225984
3.14E-5                   0.012077528372319476
3.15E-5                   0.011953328242369828
3.1599999999999996E-5     0.011830138204789559
3.17E-5                   0.011708221080504386
3.18E-5                   0.011587735959169914
3.1899999999999996E-5     0.011468240013712954
3.2E-5                    0.011350111340949315
3.21E-5                   0.011233353999821801
3.22E-5                   0.011117502818665925
3.23E-5                   0.011002864594993332
3.24E-5                   0.0108897821365916
3.25E-5                   0.010777530079371331
3.26E-5                   0.010666284561256007
3.2699999999999995E-5     0.010556687530553305
3.28E-5                   0.010447907084484261
3.29E-5                   0.01034007873313063
3.2999999999999996E-5     0.010233783081233632
3.31E-5                   0.010128321812660502
3.32E-5                   0.010023863608411688
3.3299999999999996E-5     0.009920776067040773
3.34E-5                   0.009818518407531066
3.35E-5                   0.00971727861945495
3.36E-5                   0.00961735049109442
3.37E-5                   0.009518217655687012
3.38E-5                   0.009420045558458948
3.39E-5                   0.009323169381754518
3.4E-5                    0.009227104566698287
3.4099999999999995E-5     0.009131564689730158
3.42E-5                   0.00903618432403898
3.43E-5                   0.008942649551914882
3.4399999999999996E-5     0.008852279733495946
3.45E-5                   0.00875830512816196
3.46E-5                   0.008669611917177862
3.4699999999999996E-5     0.008579128348938847
3.48E-5                   0.008491840882737203
3.49E-5                   0.008403333250239784
3.5E-5                    0.008317473761806478
3.51E-5                   0.008231882923096486
3.52E-5                   0.008147253081247943
3.53E-5                   0.008063226189642586
3.54E-5                   0.00798031433198783
3.5499999999999996E-5     0.007897908049388376
3.56E-5                   0.007816724903615539
3.57E-5                   0.007736067011002017
3.5799999999999996E-5     0.007656502328772183
3.59E-5                   0.007577990737255318
3.6E-5                    0.007499968779255679
3.6099999999999997E-5     0.007422413321858119
3.62E-5                   0.0073462566383356576
3.63E-5                   0.007270099957894528
3.64E-5                   0.007195679085749194
3.65E-5                   0.007121474446852779
3.6599999999999995E-5     0.00704812576034302
3.67E-5                   0.006975541139140948
3.68E-5                   0.006903283032828189
3.6899999999999996E-5     0.006832647841919557
3.7E-5                    0.006762012653642967
3.71E-5                   0.006693299924372184
3.7199999999999996E-5     0.00662504807997979
3.73E-5                   0.00655679623787101
3.74E-5                   0.006488544397970588
3.75E-5                   0.006420575851823441
3.76E-5                   0.006355661318363751
3.77E-5                   0.006290746786833294
3.78E-5                   0.006225832257167093
3.79E-5                   0.006160917729300166
3.7999999999999995E-5     0.006097106351878851
3.81E-5                   0.006035229552462814
3.82E-5                   0.005973352754912176
3.8299999999999996E-5     0.005911475959170822
3.84E-5                   0.005849599165182632
3.85E-5                   0.005790516278959439
3.8599999999999996E-5     0.00573299535036504
3.87E-5                   0.005675474423269133
3.88E-5                   0.005617953497626567
3.89E-5                   0.005560432573392192
3.9E-5                    0.005502911650520845
3.9099999999999995E-5     0.005445390728967377
3.92E-5                   0.005387869808686633
3.93E-5                   0.005330348889633455
3.9399999999999995E-5     0.005273887059095719
3.95E-5                   0.005221716707358884
3.96E-5                   0.0051695463566105715
3.9699999999999996E-5     0.005117376006817119
3.98E-5                   0.005065205657944859
3.99E-5                   0.005013035309960128
3.9999999999999996E-5     0.004960864962829266
4.01E-5                   0.004908694616518602
4.02E-5                   0.004856524270994474
4.03E-5                   0.004804353926223225
4.04E-5                   0.004755859270100044
4.0499999999999995E-5     0.004708560835011
4.06E-5                   0.004661262401012997
4.07E-5                   0.004613963968080936
4.0799999999999996E-5     0.004566665536189723
4.09E-5                   0.0045193671053142485
4.1E-5                    0.004472068675429418
4.1099999999999996E-5     0.0044247702465101315
4.12E-5                   0.004377471818531286
4.13E-5                   0.004332135348094694
4.14E-5                   0.004291145620637877
4.15E-5                   0.004250155893685678
4.1599999999999995E-5     0.004209166167221774
4.17E-5                   0.004168176441229827
4.18E-5                   0.004127186715693508
4.1899999999999995E-5     0.004086196990596491
4.2E-5                    0.004045207265922439
4.21E-5                   0.0040042175416550255
4.2199999999999996E-5     0.00396322781777792
4.23E-5                   0.0039222380942747865
4.24E-5                   0.003881248371129302
4.2499999999999996E-5     0.0038402586483251328
4.26E-5                   0.0037992689258459452
4.27E-5                   0.00375827920367541
4.28E-5                   0.0037172894817972
4.29E-5                   0.0036762997601949795
4.2999999999999995E-5     0.003635310038852424
4.31E-5                   0.003594320317753195
4.32E-5                   0.0035564262192315644
4.3299999999999995E-5     0.0035227367165353235
4.34E-5                   0.0034890472142234067
4.35E-5                   0.003455357712286749
4.3599999999999996E-5     0.003421668210716284
4.37E-5                   0.0033879787095029397
4.38E-5                   0.00335428920863765
4.3899999999999996E-5     0.0033205997081113482
4.4E-5                    0.003286910207914963
4.41E-5                   0.003253220708039429
4.42E-5                   0.0032195312084756797
4.43E-5                   0.003185841709214642
4.4399999999999995E-5     0.003152152210247253
4.45E-5                   0.0031184627115644404
4.46E-5                   0.0030847732131571376
4.4699999999999996E-5     0.0030510837150162797
4.48E-5                   0.0030173942171327936
4.49E-5                   0.0029837047194976136
4.4999999999999996E-5     0.0029500152221016737
4.51E-5                   0.002919566054829831
4.52E-5                   0.0028919095893192542
4.5299999999999997E-5     0.0028642531240782145
4.54E-5                   0.0028365966591016923
4.5499999999999995E-5     0.0028089401943846705
4.56E-5                   0.002781283729922129
4.57E-5                   0.002753627265709054
4.5799999999999995E-5     0.0027259708017404265
4.59E-5                   0.002698314338011225
4.6E-5                    0.0026706578745164357
4.6099999999999996E-5     0.00264300141125104
4.62E-5                   0.002615344948210018
4.63E-5                   0.002587688485388353
4.6399999999999996E-5     0.0025600320227810286
4.65E-5                   0.0025323755603830237
4.66E-5                   0.002504719098189323
4.67E-5                   0.0024770626361949087
4.68E-5                   0.0024494061743947607
4.6899999999999995E-5     0.002421749712783864
4.7E-5                    0.002397250744763418
4.71E-5                   0.002374450836871747
4.7199999999999995E-5     0.0023516509290016775
4.73E-5                   0.002328851021150396
4.74E-5                   0.002306051113315094
4.7499999999999996E-5     0.002283251205492965
4.76E-5                   0.002260451297681196
4.77E-5                   0.0022376513898769773
4.7799999999999996E-5     0.0022148514820775032
4.79E-5                   0.00219205157427996
4.8E-5                    0.0021692516664815393
4.81E-5                   0.002146451758679434
4.82E-5                   0.0021236518508708315
4.8299999999999995E-5     0.0021008519430529256
4.84E-5                   0.0020780520352229022
4.85E-5                   0.0020552521273779554
4.8599999999999995E-5     0.002032452219515275
4.87E-5                   0.0020096523116320503
4.88E-5                   0.0019868524037254718
4.8899999999999996E-5     0.0019672281505892495
4.9E-5                    0.0019485891942788089
4.91E-5                   0.001929950238108353
4.9199999999999997E-5     0.0019113112820763475
4.93E-5                   0.0018926723261812526
4.9399999999999995E-5     0.0018740333704215352
4.95E-5                   0.0018553944147956564
4.96E-5                   0.0018367554593020819
4.9699999999999995E-5     0.0018181165039392764
4.98E-5                   0.0017994775487057016
4.99E-5                   0.001780838593599821
4.9999999999999996E-5     0.0017621996386201013
5.01E-5                   0.0017435606837650037
5.02E-5                   0.0017249217290329923
5.0299999999999996E-5     0.0017062827744225332
5.04E-5                   0.0016876438199320868
5.05E-5                   0.0016690048655601194
5.06E-5                   0.001650365911305095
5.07E-5                   0.0016317269571654747
5.0799999999999995E-5     0.0016159161654463684
5.09E-5                   0.0016005047605782779
5.1E-5                    0.0015850933556821076
5.1099999999999995E-5     0.001569681950756991
5.12E-5                   0.0015542705458020563
5.13E-5                   0.001538859140816437
5.1399999999999996E-5     0.0015234477357992649
5.15E-5                   0.0015080363307496695
5.16E-5                   0.0014926249256667834
5.1699999999999996E-5     0.0014772135205497387
5.18E-5                   0.0014618021153976655
5.1899999999999994E-5     0.0014463907102096963
5.2E-5                    0.0014309793049849617
5.21E-5                   0.0014155678997225926
5.2199999999999995E-5     0.0014001564944217226
5.23E-5                   0.0013847450890814815
5.24E-5                   0.0013693336837010003
5.2499999999999995E-5     0.0013539222782794121
5.26E-5                   0.0013385108728158463
5.27E-5                   0.0013258493431064745
5.2799999999999996E-5     0.0013132175276770336
5.29E-5                   0.0013005857122982524
5.3E-5                    0.0012879538969696543
5.3099999999999996E-5     0.001275322081690764
5.32E-5                   0.0012626902664611018
5.3299999999999995E-5     0.001250058451280194
5.34E-5                   0.0012374266361475613
5.35E-5                   0.001224794821062728
5.3599999999999995E-5     0.001212163006025218
5.37E-5                   0.0011995311910345523
5.38E-5                   0.001186899376090256
5.3899999999999996E-5     0.0011742675611918524
5.4E-5                    0.0011616357463388634
5.41E-5                   0.0011490039315308128
5.4199999999999996E-5     0.0011363721167672244
5.43E-5                   0.0011237403020476202
5.4399999999999994E-5     0.0011111084873715248
5.4499999999999997E-5     0.001098715049986151
5.46E-5                   0.0010884119845908254
5.4699999999999995E-5     0.001078108919196669
5.48E-5                   0.00106780585380342
5.49E-5                   0.0010575027884108176
5.4999999999999995E-5     0.0010471997230186028
5.51E-5                   0.0010368966576265127
5.52E-5                   0.0010265935922342876
5.5299999999999996E-5     0.001016290526841668
5.54E-5                   0.0010059874614483909
5.55E-5                   9.956843960541965E-4
5.5599999999999996E-5     9.853813306588252E-4
5.57E-5                   9.750782652620151E-4
5.5799999999999994E-5     9.647751998635062E-4
5.59E-5                   9.544721344630368E-4
5.6E-5                    9.441690690603467E-4
5.6099999999999995E-5     9.338660036551763E-4
5.62E-5                   9.235629382472628E-4
5.63E-5                   9.132598728363472E-4
5.6399999999999995E-5     9.033003596494801E-4
5.65E-5                   8.9459212788722E-4
5.66E-5                   8.858838961157259E-4
5.6699999999999996E-5     8.771756643348426E-4
5.68E-5                   8.684674325444135E-4
5.69E-5                   8.597592007442838E-4
5.6999999999999996E-5     8.510509689342985E-4
5.71E-5                   8.423427371143013E-4
5.7199999999999994E-5     8.336345052841372E-4
5.73E-5                   8.2492627344365E-4
5.74E-5                   8.162180415926845E-4
5.7499999999999995E-5     8.075098097310861E-4
5.76E-5                   7.988015778586981E-4
5.77E-5                   7.900933459753655E-4
5.7799999999999995E-5     7.813851140809333E-4
5.79E-5                   7.72676882175245E-4
5.8E-5                    7.639686502581452E-4
5.8099999999999996E-5     7.552604183294799E-4
5.82E-5                   7.465521863890916E-4
5.8299999999999994E-5     7.384927317479294E-4
5.8399999999999997E-5     7.317596573437628E-4
5.85E-5                   7.250265829690707E-4
5.8599999999999995E-5     7.182935086237806E-4
5.87E-5                   7.115604343078191E-4
5.88E-5                   7.048273600211133E-4
5.8899999999999995E-5     6.980942857635915E-4
5.9E-5                    6.913612115351796E-4
5.91E-5                   6.846281373358052E-4
5.9199999999999996E-5     6.778950631653963E-4
5.93E-5                   6.711619890238787E-4
5.94E-5                   6.644289149111807E-4
5.9499999999999996E-5     6.576958408272289E-4
5.96E-5                   6.509627667719507E-4
5.9699999999999994E-5     6.442296927452736E-4
5.98E-5                   6.37496618747124E-4
5.99E-5                   6.307635447774294E-4
5.9999999999999995E-5     6.24030470836118E-4
6.01E-5                   6.172973969231153E-4
6.02E-5                   6.109054625211381E-4
6.0299999999999995E-5     6.049450337171511E-4
6.04E-5                   5.98984604862067E-4
6.05E-5                   5.930241759558345E-4
6.0599999999999996E-5     5.870637469984019E-4
6.07E-5                   5.811033179897172E-4
6.08E-5                   5.751428889297286E-4
6.0899999999999996E-5     5.691824598183846E-4
6.1E-5                    5.63222030655633E-4
6.11E-5                   5.572616014414228E-4
6.12E-5                   5.513011721757008E-4
6.13E-5                   5.453407428584164E-4
6.14E-5                   5.393803134895174E-4
6.149999999999999E-5      5.332930452844325E-4
6.159999999999999E-5      5.271520723749335E-4
6.17E-5                   5.210110995232086E-4
6.18E-5                   5.148701267292072E-4
6.19E-5                   5.087291539928781E-4
6.2E-5                    5.025881813141706E-4
6.209999999999999E-5      4.964472086930348E-4
6.22E-5                   4.903062361294181E-4
6.23E-5                   4.8448847110946225E-4
6.24E-5                   4.801271715904279E-4
6.25E-5                   4.7576587205390994E-4
6.26E-5                   4.714045724998878E-4
6.269999999999999E-5      4.6704327292834225E-4
6.28E-5                   4.626819733392521E-4
6.29E-5                   4.583206737325973E-4
6.3E-5                    4.539593741083579E-4
6.31E-5                   4.4959398650205813E-4
6.319999999999999E-5      4.452268369430163E-4
6.33E-5                   4.408596873656959E-4
6.34E-5                   4.3649253777007583E-4
6.35E-5                   4.3212538815613457E-4
6.36E-5                   4.277582385238504E-4