% Model:              20230225_JW_4_20.mph
% Version:            COMSOL 5.6.0.401
% Date:               Feb 25 2023, 20:46
% Dimension:          1
% Nodes:              1501
% Expressions:        1
% Description:        点图
% X                       Height
0                         0.9538164450389732
1.0E-7                    0.9536760538246769
2.0E-7                    0.9353364803655182
3.0E-7                    0.9714746641116211
4.0E-7                    1.0092840238066845
5.0E-7                    1.0363003715640609
6.0E-7                    1.0569045515227473
7.0E-7                    1.0694765964107085
8.0E-7                    1.0832591838251087
9.0E-7                    1.083752716142694
1.0E-6                    1.0877938737733015
1.1E-6                    1.087709758463583
1.2E-6                    1.0857636412956544
1.2999999999999998E-6     1.0815733217302907
1.4E-6                    1.0760822407806903
1.5E-6                    1.0694621849718073
1.6E-6                    1.0619311456573965
1.6999999999999998E-6     1.053782185813985
1.8E-6                    1.0453759844756516
1.9E-6                    1.0362922456231944
2.0E-6                    1.026962833073814
2.1E-6                    1.017325455141324
2.2E-6                    1.0076309446629035
2.3E-6                    0.9978589265541028
2.4E-6                    0.9880640549241038
2.4999999999999998E-6     0.9782072534638989
2.5999999999999997E-6     0.9683741147752943
2.7E-6                    0.9586739557644586
2.8E-6                    0.9490903016840688
2.8999999999999998E-6     0.9395737434250687
3.0E-6                    0.9303662774480917
3.1E-6                    0.9189247931840632
3.2E-6                    0.9047200945890268
3.2999999999999997E-6     0.9001241620295838
3.3999999999999996E-6     0.8915590461285674
3.5E-6                    0.8824402257287255
3.6E-6                    0.8737856308880356
3.6999999999999997E-6     0.8648443434795742
3.8E-6                    0.8561603422877309
3.9E-6                    0.8473961317767248
4.0E-6                    0.8387130223678927
4.1E-6                    0.8301290469168754
4.2E-6                    0.8215951450574295
4.2999999999999995E-6     0.8131641994426028
4.4E-6                    0.8047630877395748
4.5E-6                    0.7964835921581253
4.6E-6                    0.7882964348419436
4.7E-6                    0.7801850060565759
4.8E-6                    0.7721569037840986
4.9E-6                    0.7651647924580521
4.9999999999999996E-6     0.757277059377434
5.0999999999999995E-6     0.7491292755215385
5.199999999999999E-6      0.7408754926919351
5.3E-6                    0.7333166387249171
5.4E-6                    0.7256931821543605
5.5E-6                    0.7182415903069536
5.6E-6                    0.7108426678903621
5.7E-6                    0.7034382882890952
5.7999999999999995E-6     0.6961393640047978
5.899999999999999E-6      0.6889208150986057
6.0E-6                    0.681712183676624
6.1E-6                    0.6743306738559542
6.2E-6                    0.6677144310861748
6.3E-6                    0.6607863189516459
6.4E-6                    0.6542742630314442
6.5E-6                    0.6474320391770357
6.5999999999999995E-6     0.6407732617812382
6.699999999999999E-6      0.6341771685629539
6.799999999999999E-6      0.6284389503561979
6.9E-6                    0.6208679839045019
7.0E-6                    0.614708124670932
7.1E-6                    0.608430294981912
7.2E-6                    0.6022608174917682
7.2999999999999996E-6     0.5959090320950798
7.3999999999999995E-6     0.5898180548470521
7.499999999999999E-6      0.5837676789859099
7.6E-6                    0.5776649265611542
7.699999999999999E-6      0.5714176551505341
7.8E-6                    0.5657550616086727
7.899999999999999E-6      0.5600435083530607
8.0E-6                    0.5542153564825808
8.1E-6                    0.5485773870729836
8.2E-6                    0.54298379465342
8.3E-6                    0.5373327749189256
8.4E-6                    0.5318213148337815
8.5E-6                    0.5263460090078868
8.599999999999999E-6      0.520956290854628
8.7E-6                    0.5154409045470371
8.8E-6                    0.5103625537769377
8.9E-6                    0.5050476094560687
9.0E-6                    0.49982781302025653
9.1E-6                    0.49465166531005694
9.2E-6                    0.4895966405843721
9.299999999999999E-6      0.4844957780513066
9.4E-6                    0.4794941529180793
9.499999999999999E-6      0.4745458191359914
9.6E-6                    0.4696525640296343
9.7E-6                    0.4647276704679726
9.8E-6                    0.4599820976346982
9.9E-6                    0.45527248887549754
9.999999999999999E-6      0.4506294405113768
1.01E-5                   0.44588220394431
1.0199999999999999E-5     0.44138984136454545
1.03E-5                   0.43683370342902633
1.0399999999999999E-5     0.43231510627806713
1.05E-5                   0.42786343815564676
1.06E-5                   0.42346366683001496
1.07E-5                   0.4190890970996848
1.08E-5                   0.41478118591269747
1.0899999999999999E-5     0.410499338920948
1.1E-5                    0.40627259027852014
1.1099999999999999E-5     0.402085937486023
1.12E-5                   0.3979415597198203
1.13E-5                   0.39384036547781204
1.14E-5                   0.3897823585492345
1.15E-5                   0.38576347955537865
1.1599999999999999E-5     0.3817902826700967
1.17E-5                   0.3778578409679572
1.1799999999999999E-5     0.37398939816179033
1.19E-5                   0.36933312501047133
1.2E-5                    0.3658261125272596
1.21E-5                   0.3623649259201033
1.22E-5                   0.35868503827257814
1.2299999999999999E-5     0.35503169983625665
1.24E-5                   0.351364122922954
1.2499999999999999E-5     0.3477865170588337
1.26E-5                   0.34422514112724345
1.2699999999999999E-5     0.3406791514212307
1.28E-5                   0.3372052202649476
1.29E-5                   0.33367209030652445
1.3E-5                    0.3303036647814856
1.31E-5                   0.32685958548273414
1.3199999999999999E-5     0.3235211329207084
1.33E-5                   0.3201531192752854
1.3399999999999999E-5     0.3170174805705418
1.35E-5                   0.31365794194526375
1.3599999999999999E-5     0.3104082262424772
1.37E-5                   0.3072116857382271
1.38E-5                   0.3040113933189339
1.3899999999999999E-5     0.30092113407583926
1.4E-5                    0.297788556214588
1.4099999999999999E-5     0.2947242392130919
1.42E-5                   0.2916894561263826
1.4299999999999999E-5     0.2886835418706955
1.44E-5                   0.2856998320770341
1.45E-5                   0.28276606742067395
1.4599999999999999E-5     0.279843661088723
1.47E-5                   0.27696971505599555
1.4799999999999999E-5     0.27411042362331706
1.49E-5                   0.2712905559990459
1.4999999999999999E-5     0.2684946349569089
1.51E-5                   0.265727246841878
1.52E-5                   0.2629616725528488
1.53E-5                   0.26032346421875696
1.5399999999999998E-5     0.2576331864553083
1.55E-5                   0.2549596860518128
1.56E-5                   0.25234217799027864
1.57E-5                   0.249713615414234
1.5799999999999998E-5     0.24715712806068055
1.59E-5                   0.24460842612151448
1.6E-5                    0.24208452324939572
1.61E-5                   0.23959011711265035
1.62E-5                   0.23711554191776665
1.63E-5                   0.23467730577582205
1.64E-5                   0.23225297646304566
1.6499999999999998E-5     0.22985984590785458
1.66E-5                   0.22748745130137635
1.67E-5                   0.22515056840368886
1.68E-5                   0.2228298392494262
1.69E-5                   0.22053266510456881
1.7E-5                    0.21826126431681223
1.71E-5                   0.21601047560081937
1.7199999999999998E-5     0.21379133272693251
1.73E-5                   0.211583627614694
1.74E-5                   0.20940757682674976
1.75E-5                   0.20724535038570385
1.76E-5                   0.20511411224455134
1.77E-5                   0.20300118727974895
1.78E-5                   0.20093262285966348
1.7899999999999998E-5     0.19875305975229937
1.8E-5                    0.19678636160085283
1.81E-5                   0.19475076214103243
1.82E-5                   0.19274620876101053
1.8299999999999998E-5     0.19075826050194492
1.84E-5                   0.1887843572521553
1.85E-5                   0.1868511516306047
1.8599999999999998E-5     0.18491787039356852
1.87E-5                   0.18301787840199027
1.88E-5                   0.1811275933834921
1.89E-5                   0.1792621008718829
1.8999999999999998E-5     0.17741900474876343
1.91E-5                   0.17558908470408038
1.92E-5                   0.17378213394710834
1.9299999999999998E-5     0.171988317667199
1.94E-5                   0.17021991085017266
1.95E-5                   0.16846418014379513
1.96E-5                   0.16672999502272792
1.9699999999999998E-5     0.1650124714166879
1.98E-5                   0.16330424456443712
1.99E-5                   0.1616197550636547
1.9999999999999998E-5     0.15995943118386427
2.01E-5                   0.15830959295826133
2.02E-5                   0.15667985272362148
2.03E-5                   0.1550619458517451
2.0399999999999998E-5     0.1534666775245587
2.05E-5                   0.1518831442544953
2.06E-5                   0.15031608468905
2.07E-5                   0.14876847742855928
2.0799999999999997E-5     0.14723633914831838
2.09E-5                   0.1457171974374891
2.1E-5                    0.14421981376082343
2.1099999999999998E-5     0.14272984205713615
2.12E-5                   0.14126323642825467
2.13E-5                   0.13980629187256813
2.14E-5                   0.1383668489651391
2.1499999999999997E-5     0.1369419766188495
2.16E-5                   0.13552387435280852
2.17E-5                   0.1341523022242574
2.1799999999999998E-5     0.13275644338472103
2.19E-5                   0.1313916869920598
2.2E-5                    0.13003531373410637
2.21E-5                   0.12869102469145094
2.2199999999999998E-5     0.12736318202312052
2.23E-5                   0.1260458931278185
2.24E-5                   0.1247424604532289
2.2499999999999998E-5     0.12345728158658086
2.26E-5                   0.12218189820052652
2.27E-5                   0.12093037437047773
2.28E-5                   0.11967885176094532
2.2899999999999998E-5     0.11845184528158688
2.3E-5                    0.11722818523483934
2.31E-5                   0.11602294702312381
2.3199999999999998E-5     0.11482615943168478
2.33E-5                   0.11364316801986728
2.34E-5                   0.11247446974581886
2.35E-5                   0.11131322987955825
2.3599999999999998E-5     0.11016966209061774
2.37E-5                   0.10902881466742134
2.38E-5                   0.10791181110982426
2.3899999999999998E-5     0.10679480851061658
2.4E-5                    0.10569952998617431
2.41E-5                   0.1046064534463696
2.42E-5                   0.1035322585581975
2.4299999999999998E-5     0.10246564197901073
2.44E-5                   0.10141023303032026
2.45E-5                   0.100365201948387
2.4599999999999998E-5     0.09932851532172843
2.4699999999999997E-5     0.09830917193890948
2.48E-5                   0.09729263597730822
2.49E-5                   0.09629481023218234
2.4999999999999998E-5     0.09529698509930196
2.51E-5                   0.09431880275256802
2.52E-5                   0.09334196275658532
2.53E-5                   0.09239105777548735
2.5399999999999997E-5     0.09144347058476464
2.55E-5                   0.09050152713130726
2.56E-5                   0.08956171394663696
2.5699999999999998E-5     0.08863645237973793
2.58E-5                   0.08772584413437137
2.59E-5                   0.08681304457817637
2.6E-5                    0.08591659270450423
2.6099999999999997E-5     0.08503203254051929
2.62E-5                   0.08415625024091442
2.63E-5                   0.08328877965184536
2.6399999999999998E-5     0.08243003312542169
2.65E-5                   0.08158155278262148
2.66E-5                   0.08074043839703582
2.67E-5                   0.07990911270088645
2.6799999999999998E-5     0.07908587747658995
2.69E-5                   0.07827109483831816
2.7E-5                    0.07746495740780054
2.7099999999999998E-5     0.07666681281332952
2.7199999999999997E-5     0.07587724644530566
2.73E-5                   0.07509542089624835
2.74E-5                   0.0743221022917851
2.7499999999999998E-5     0.07355635011356926
2.76E-5                   0.07279855733580769
2.77E-5                   0.07204983526895987
2.7799999999999998E-5     0.07129673832610642
2.7899999999999997E-5     0.07056799107118672
2.8E-5                    0.06983327335557532
2.81E-5                   0.06911535277177022
2.8199999999999998E-5     0.06840500237062365
2.83E-5                   0.0677001103951098
2.84E-5                   0.06700261919511892
2.8499999999999998E-5     0.06631325880623415
2.8599999999999997E-5     0.06562979087620872
2.87E-5                   0.06495446607024823
2.88E-5                   0.06428518269062301
2.8899999999999998E-5     0.06362312417901513
2.9E-5                    0.06296785315357337
2.91E-5                   0.062319286240586684
2.9199999999999998E-5     0.061677066731660894
2.9299999999999997E-5     0.061042012884109285
2.94E-5                   0.06041295850709282
2.95E-5                   0.059790796947665606
2.9599999999999998E-5     0.05917499722202674
2.97E-5                   0.058565046975711924
2.98E-5                   0.057958893445135044
2.99E-5                   0.05736435326140122
2.9999999999999997E-5     0.05676853240399272
3.01E-5                   0.05618848792504143
3.02E-5                   0.055605885661964796
3.0299999999999998E-5     0.055030466672416505
3.04E-5                   0.05446378257713444
3.05E-5                   0.05390277329832082
3.06E-5                   0.05334683164641282
3.07E-5                   0.0527977857869893
3.0799999999999996E-5     0.05225349941622232
3.09E-5                   0.051714895186520955
3.1E-5                    0.05118364944218343
3.11E-5                   0.05065535520048635
3.12E-5                   0.050134588619654016
3.13E-5                   0.049617925195368756
3.14E-5                   0.04910635269033827
3.15E-5                   0.04860119806420787
3.1599999999999996E-5     0.04810009763625945
3.17E-5                   0.04760445472062709
3.18E-5                   0.04711467576845545
3.1899999999999996E-5     0.046628837038388764
3.2E-5                    0.046148384622984095
3.21E-5                   0.04567369877750396
3.22E-5                   0.0452027252899359
3.23E-5                   0.04473667148165227
3.24E-5                   0.04427674571375363
3.25E-5                   0.04382031062753992
3.26E-5                   0.043368228353770626
3.2699999999999995E-5     0.04292245883931274
3.28E-5                   0.0424800821397482
3.29E-5                   0.04204180121048845
3.2999999999999996E-5     0.041609597222508544
3.31E-5                   0.0411807552120096
3.32E-5                   0.04075597745273689
3.3299999999999996E-5     0.040336933055354574
3.34E-5                   0.039921179917901936
3.35E-5                   0.039509404136362225
3.36E-5                   0.03910320792554415
3.37E-5                   0.03870017990040873
3.38E-5                   0.03830091773486877
3.39E-5                   0.0379070364529481
3.4E-5                    0.03751625040393694
3.4099999999999995E-5     0.03712766951351707
3.42E-5                   0.03674066246629334
3.43E-5                   0.03636109395110182
3.4399999999999996E-5     0.03599042638389971
3.45E-5                   0.03561185733400909
3.46E-5                   0.03524865034627327
3.4699999999999996E-5     0.034883600053858745
3.48E-5                   0.0345258723792993
3.49E-5                   0.03416931851926492
3.5E-5                    0.03381810370690412
3.51E-5                   0.033469883677045384
3.52E-5                   0.033126012740880416
3.53E-5                   0.03278457944447881
3.54E-5                   0.03244673737625729
3.5499999999999996E-5     0.03211259142971305
3.56E-5                   0.03178156987617745
3.57E-5                   0.031454222519062276
3.5799999999999996E-5     0.031130652846652607
3.59E-5                   0.03081129426451741
3.6E-5                    0.030494000954520258
3.6099999999999997E-5     0.030178666953143744
3.62E-5                   0.029869207813130648
3.63E-5                   0.029559748694670963
3.64E-5                   0.029256945407954857
3.65E-5                   0.028954971254440045
3.6599999999999995E-5     0.028656774335279706
3.67E-5                   0.028361949167046045
3.68E-5                   0.028068353290716042
3.6899999999999996E-5     0.027780867466754126
3.7E-5                    0.027493381655252485
3.71E-5                   0.027214047300027303
3.7199999999999996E-5     0.02693666715670944
3.73E-5                   0.026659287028440427
3.74E-5                   0.026381906914693155
3.75E-5                   0.02610565966718155
3.76E-5                   0.0258416250872053
3.77E-5                   0.02557759051849119
3.78E-5                   0.025313555960583718
3.79E-5                   0.025049521413027343
3.7999999999999995E-5     0.024790033671117834
3.81E-5                   0.024538519591321795
3.82E-5                   0.02428700552321092
3.8299999999999996E-5     0.024035491466392073
3.84E-5                   0.023783977420472092
3.85E-5                   0.02354376248625909
3.8599999999999996E-5     0.023309864416329408
3.87E-5                   0.023075966355109133
3.88E-5                   0.022842068302281863
3.89E-5                   0.02260817025753116
3.9E-5                    0.022374272220540534
3.9099999999999995E-5     0.022140374190993583
3.92E-5                   0.021906476168573823
3.93E-5                   0.021672578152964823
3.9399999999999995E-5     0.021442994012822496
3.95E-5                   0.021230889904105765
3.96E-5                   0.021018785802401362
3.9699999999999996E-5     0.020806681707473424
3.98E-5                   0.020594577619086014
3.99E-5                   0.020382473537003256
3.9999999999999996E-5     0.020170369460989258
4.01E-5                   0.019958265390808097
4.02E-5                   0.019746161326223897
4.03E-5                   0.019534057267000752
4.04E-5                   0.01933687807059509
4.0499999999999995E-5     0.019144556042298463
4.06E-5                   0.01895223401976189
4.07E-5                   0.01875991200280948
4.0799999999999996E-5     0.01856758999126537
4.09E-5                   0.018375267984953623
4.1E-5                    0.018182945983698368
4.1099999999999996E-5     0.01799062398732372
4.12E-5                   0.017798301995653753
4.13E-5                   0.017613961963224303
4.14E-5                   0.017447306066790482
4.15E-5                   0.01728065017368201
4.1599999999999995E-5     0.01711399428378447
4.17E-5                   0.016947338396983404
4.18E-5                   0.016780682513164377
4.1899999999999995E-5     0.016614026632212973
4.2E-5                    0.016447370754014725
4.21E-5                   0.01628071487845521
4.2199999999999996E-5     0.01611405900542
4.23E-5                   0.015947403134794636
4.24E-5                   0.015780747266464685
4.2499999999999996E-5     0.015614091400315734
4.26E-5                   0.015447435536233305
4.27E-5                   0.015280779674102981
4.28E-5                   0.015114123813810325
4.29E-5                   0.014947467955240892
4.2999999999999995E-5     0.014780812098280255
4.31E-5                   0.01461415624281395
4.32E-5                   0.014460084817327305
4.3299999999999995E-5     0.014323106057803271
4.34E-5                   0.014186127300929212
4.35E-5                   0.014049148546641589
4.3599999999999996E-5     0.013912169794876892
4.37E-5                   0.01377519104557155
4.38E-5                   0.013638212298662035
4.3899999999999996E-5     0.013501233554084826
4.4E-5                    0.013364254811776357
4.41E-5                   0.013227276071673103
4.42E-5                   0.01309029733371153
4.43E-5                   0.012953318597828082
4.4399999999999995E-5     0.01281633986395924
4.45E-5                   0.012679361132041447
4.46E-5                   0.012542382402011174
4.4699999999999996E-5     0.012405403673804887
4.48E-5                   0.012268424947359028
4.49E-5                   0.012131446222610079
4.4999999999999996E-5     0.01199446749949449
4.51E-5                   0.011870660524929928
4.52E-5                   0.011758205716123796
4.5299999999999997E-5     0.011645750908645225
4.54E-5                   0.011533296102459024
4.5499999999999995E-5     0.011420841297530022
4.56E-5                   0.011308386493823036
4.57E-5                   0.011195931691302886
4.5799999999999995E-5     0.011083476889934402
4.59E-5                   0.010971022089682394
4.6E-5                    0.010858567290511687
4.6099999999999996E-5     0.010746112492387109
4.62E-5                   0.010633657695273468
4.63E-5                   0.010521202899135591
4.6399999999999996E-5     0.010408748103938308
4.65E-5                   0.010296293309646425
4.66E-5                   0.010183838516224767
4.67E-5                   0.010071383723638166
4.68E-5                   0.009958928931851428
4.6899999999999995E-5     0.009846474140829386
4.7E-5                    0.009746867367293691
4.71E-5                   0.009654174164520024
4.7199999999999995E-5     0.009561480962250736
4.73E-5                   0.009468787760466134
4.74E-5                   0.009376094559146557
4.7499999999999996E-5     0.009283401358272332
4.76E-5                   0.009190708157823777
4.77E-5                   0.009098014957781219
4.7799999999999996E-5     0.00900532175812499
4.79E-5                   0.008912628558835409
4.8E-5                    0.0088199353598928
4.81E-5                   0.008727242161277501
4.82E-5                   0.00863454896296983
4.8299999999999995E-5     0.008541855764950116
4.84E-5                   0.008449162567198673
4.85E-5                   0.008356469369695838
4.8599999999999995E-5     0.00826377617242194
4.87E-5                   0.008171082975357295
4.88E-5                   0.00807838977848223
4.8899999999999996E-5     0.007998597030825073
4.9E-5                    0.007922806850329134
4.91E-5                   0.007847016670398827
4.9199999999999997E-5     0.0077712264910233765
4.93E-5                   0.007695436312192004
4.9399999999999995E-5     0.007619646133893947
4.95E-5                   0.007543855956118423
4.96E-5                   0.007468065778854663
4.9699999999999995E-5     0.0073922756020919
4.98E-5                   0.007316485425819352
4.99E-5                   0.0072406952500262516
4.9999999999999996E-5     0.007164905074701831
5.01E-5                   0.007089114899835305
5.02E-5                   0.00701332472541591
5.0299999999999996E-5     0.006937534551432877
5.04E-5                   0.0068617443778754205
5.05E-5                   0.006785954204732779
5.06E-5                   0.006710164031994179
5.07E-5                   0.006634373859648841
5.0799999999999995E-5     0.006570080634858243
5.09E-5                   0.006507410983769468
5.1E-5                    0.0064447413327271014
5.1099999999999995E-5     0.006382071681725065
5.12E-5                   0.006319402030757259
5.13E-5                   0.0062567323798175985
5.1399999999999996E-5     0.0061940627289
5.15E-5                   0.00613139307799837
5.16E-5                   0.006068723427106618
5.1699999999999996E-5     0.006006053776218666
5.18E-5                   0.005943384125328414
5.1899999999999994E-5     0.0058807144744297815
5.2E-5                    0.005818044823516674
5.21E-5                   0.005755375172583006
5.2199999999999995E-5     0.005692705521622694
5.23E-5                   0.005630035870629642
5.24E-5                   0.0055673662195977625
5.2499999999999995E-5     0.005504696568520977
5.26E-5                   0.005442026917393182
5.27E-5                   0.0053905742391097316
5.2799999999999996E-5     0.0053392427678271995
5.29E-5                   0.005287911296722056
5.3E-5                    0.005236579825790967
5.3099999999999996E-5     0.005185248355030606
5.32E-5                   0.005133916884437634
5.3299999999999995E-5     0.00508258541400872
5.34E-5                   0.005031253943740526
5.35E-5                   0.004979922473629721
5.3599999999999995E-5     0.004928591003672976
5.37E-5                   0.00487725953386695
5.38E-5                   0.0048259280642083124
5.3899999999999996E-5     0.004774596594693734
5.4E-5                    0.004723265125319875
5.41E-5                   0.004671933656083403
5.4199999999999996E-5     0.0046206021869809885
5.43E-5                   0.004569270718009293
5.4399999999999994E-5     0.004517939249164987
5.4499999999999997E-5     0.004467569239578262
5.46E-5                   0.0044256304341613265
5.4699999999999995E-5     0.004383691628807951
5.48E-5                   0.0043417528235162916
5.49E-5                   0.004299814018284514
5.4999999999999995E-5     0.0042578752131107855
5.51E-5                   0.004215936407993263
5.52E-5                   0.004173997602930114
5.5299999999999996E-5     0.004132058797919504
5.54E-5                   0.00409011999295959
5.55E-5                   0.004048181188048539
5.5599999999999996E-5     0.004006242383184517
5.57E-5                   0.003964303578365682
5.5799999999999994E-5     0.003922364773590203
5.59E-5                   0.0038804259688562373
5.6E-5                    0.00383848716416195
5.6099999999999995E-5     0.0037965483595055094
5.62E-5                   0.0037546095548850705
5.63E-5                   0.0037126707502988035
5.6399999999999995E-5     0.003672151061039566
5.65E-5                   0.0036368000549363596
5.66E-5                   0.0036014490487792762
5.6699999999999996E-5     0.0035660980425672346
5.68E-5                   0.0035307470362991515
5.69E-5                   0.0034953960299739474
5.6999999999999996E-5     0.003460045023590543
5.71E-5                   0.003424694017147854
5.7199999999999994E-5     0.0033893430106448027
5.73E-5                   0.003353992004080303
5.74E-5                   0.0033186409974532783
5.7499999999999995E-5     0.0032832899907626486
5.76E-5                   0.0032479389840073276
5.77E-5                   0.003212587977186238
5.7799999999999995E-5     0.003177236970298301
5.79E-5                   0.0031418859633424298
5.8E-5                    0.0031065349563175458
5.8099999999999996E-5     0.003071183949222571
5.82E-5                   0.00303583294205642
5.8299999999999994E-5     0.0030030899698399944
5.8399999999999997E-5     0.002975678944432295
5.85E-5                   0.0029482679191623084
5.8599999999999995E-5     0.0029208568940295235
5.87E-5                   0.0028934458690334213
5.88E-5                   0.0028660348441734915
5.8899999999999995E-5     0.00283862381944922
5.9E-5                    0.0028112127948600905
5.91E-5                   0.0027838017704055916
5.9199999999999996E-5     0.0027563907460852093
5.93E-5                   0.002728979721898428
5.94E-5                   0.002701568697844734
5.9499999999999996E-5     0.002674157673923615
5.96E-5                   0.0026467466501345566
5.9699999999999994E-5     0.0026193356264770447
5.98E-5                   0.0025919246029505643
5.99E-5                   0.002564513579554602
5.9999999999999995E-5     0.0025371025562886456
6.01E-5                   0.002509691533152179
6.02E-5                   0.0024836092038837986
6.0299999999999995E-5     0.0024592075325383465
6.04E-5                   0.0024348058609381536
6.05E-5                   0.002410404189082847
6.0599999999999996E-5     0.002386002516972052
6.07E-5                   0.0023616008446053897
6.08E-5                   0.0023371991719824867
6.0899999999999996E-5     0.0023127974991029683
6.1E-5                    0.0022883958259664544
6.11E-5                   0.0022639941525725753
6.12E-5                   0.00223959247892095
6.13E-5                   0.0022151908050112045
6.14E-5                   0.0021907891308429643
6.149999999999999E-5      0.002166287558629414
6.159999999999999E-5      0.002141743688951655
6.17E-5                   0.002117199819562379
6.18E-5                   0.0020926559504612615
6.19E-5                   0.002068112081647979
6.2E-5                    0.0020435682131222078
6.209999999999999E-5      0.0020190243448836276
6.22E-5                   0.0019944804769319075
6.23E-5                   0.001971155755975707
6.24E-5                   0.001953324859254009
6.25E-5                   0.0019354939624087273
6.26E-5                   0.0019176630654397157
6.269999999999999E-5      0.001899832168346829
6.28E-5                   0.0018820012711299164
6.29E-5                   0.0018641703737888322
6.3E-5                    0.0018463394763234301
6.31E-5                   0.0018283010789081865
6.319999999999999E-5      0.0018101732479443434
6.33E-5                   0.0017920454169880738
6.34E-5                   0.001773917586039213
6.35E-5                   0.0017557897550975964
6.36E-5                   0.0017376619241630572
6.37E-5                   0.00171838754885186
6.379999999999999E-5      0.0016985289616537798
6.39E-5                   0.0016786703746290022
6.4E-5                    0.0016588117877773746
6.41E-5                   0.0016389532010987395
6.42E-5                   0.001622926588217843