% Model:              20230225_JW_4_20.mph
% Version:            COMSOL 5.6.0.401
% Date:               Feb 25 2023, 20:41
% Dimension:          1
% Nodes:              1501
% Expressions:        1
% Description:        点图
% X                       Height
0                         13.301729115039418
1.0E-7                    13.315848561154723
2.0E-7                    13.347841873473591
3.0E-7                    13.351829430673101
4.0E-7                    13.341315817974722
5.0E-7                    13.318844655944986
6.0E-7                    13.282681637232386
7.0E-7                    13.227814887486893
8.0E-7                    13.164959060393032
9.0E-7                    13.092284058972762
1.0E-6                    13.009961312463142
1.1E-6                    12.923453084751795
1.2E-6                    12.830735884319955
1.2999999999999998E-6     12.733705082941857
1.4E-6                    12.63339563723399
1.5E-6                    12.530870495867577
1.6E-6                    12.4263342817574
1.6999999999999998E-6     12.320761084290716
1.8E-6                    12.21417659662293
1.9E-6                    12.106867939966234
2.0E-6                    11.999318041846323
2.1E-6                    11.891681273884291
2.2E-6                    11.784035855239095
2.3E-6                    11.676750043627427
2.4E-6                    11.570037052344663
2.4999999999999998E-6     11.46358830932573
2.5999999999999997E-6     11.35766068478707
2.7E-6                    11.252311033314164
2.8E-6                    11.14471276118237
2.8999999999999998E-6     11.035416130394713
3.0E-6                    10.933883266021947
3.1E-6                    10.837073353928425
3.2E-6                    10.73647015721358
3.2999999999999997E-6     10.633200262658216
3.3999999999999996E-6     10.53276522121382
3.5E-6                    10.434697877439215
3.6E-6                    10.335909453830705
3.6999999999999997E-6     10.237473698812995
3.8E-6                    10.139994358181264
3.9E-6                    10.04345609895803
4.0E-6                    9.947353136757222
4.1E-6                    9.851970706249253
4.2E-6                    9.757382788070926
4.2999999999999995E-6     9.663539803037878
4.4E-6                    9.570438958657927
4.5E-6                    9.478076241629228
4.6E-6                    9.38646116359837
4.7E-6                    9.295541697038296
4.8E-6                    9.204912658931672
4.9E-6                    9.116912459050795
4.9999999999999996E-6     9.027927289777244
5.0999999999999995E-6     8.939686911574958
5.199999999999999E-6      8.852580246019972
5.3E-6                    8.765991916931824
5.4E-6                    8.680488104926253
5.5E-6                    8.595303311871541
5.6E-6                    8.511107906809794
5.7E-6                    8.427630322280049
5.7999999999999995E-6     8.34471498591265
5.899999999999999E-6      8.260597142305224
6.0E-6                    8.181170476006795
6.1E-6                    8.101162576043235
6.2E-6                    8.020970272048276
6.3E-6                    7.941748974552526
6.4E-6                    7.86355811298731
6.5E-6                    7.785781657924568
6.5999999999999995E-6     7.708783960764112
6.699999999999999E-6      7.63154127581366
6.799999999999999E-6      7.5565290757278145
6.9E-6                    7.481839483265948
7.0E-6                    7.4075163592779925
7.1E-6                    7.333923883783032
7.2E-6                    7.261091438225888
7.2999999999999996E-6     7.188866780705789
7.3999999999999995E-6     7.117326898017331
7.499999999999999E-6      7.046400451498905
7.6E-6                    6.975841931152839
7.699999999999999E-6      6.906314205626735
7.8E-6                    6.83760968764801
7.899999999999999E-6      6.7691520679615165
8.0E-6                    6.701482104323687
8.1E-6                    6.634451760494662
8.2E-6                    6.56802607854823
8.3E-6                    6.502154713385374
8.4E-6                    6.437019281221531
8.5E-6                    6.372408554126088
8.599999999999999E-6      6.309152812483569
8.7E-6                    6.245211586446078
8.8E-6                    6.1823465046981845
8.9E-6                    6.120274403066129
9.0E-6                    6.058729869897438
9.1E-6                    5.997674847014569
9.2E-6                    5.937297853671312
9.299999999999999E-6      5.877446778010468
9.4E-6                    5.8181935309107224
9.499999999999999E-6      5.758738121997016
9.6E-6                    5.70138822703034
9.7E-6                    5.643920672933283
9.8E-6                    5.586884263654354
9.9E-6                    5.530322341098014
9.999999999999999E-6      5.474484961058886
1.01E-5                   5.419118770291545
1.0199999999999999E-5     5.364287348014877
1.03E-5                   5.309961745200195
1.0399999999999999E-5     5.2562242460680535
1.05E-5                   5.20298252031511
1.06E-5                   5.15028668669119
1.07E-5                   5.098086826617408
1.08E-5                   5.046409725558566
1.0899999999999999E-5     4.995237547233794
1.1E-5                    4.944565717413839
1.1099999999999999E-5     4.894389496622117
1.12E-5                   4.844704816675849
1.13E-5                   4.7955051831206745
1.14E-5                   4.74679874870272
1.15E-5                   4.698535089108396
1.1599999999999999E-5     4.650796169388195
1.17E-5                   4.603195911852219
1.1799999999999999E-5     4.554658718504183
1.19E-5                   4.5099583787157265
1.2E-5                    4.464541894513892
1.21E-5                   4.419010515694511
1.22E-5                   4.37399067347035
1.2299999999999999E-5     4.3296343300210545
1.24E-5                   4.285719452138273
1.2499999999999999E-5     4.242076648056656
1.26E-5                   4.198913316153814
1.2699999999999999E-5     4.156097265293054
1.28E-5                   4.113799403937117
1.29E-5                   4.071832197915906
1.3E-5                    4.030339649621941
1.31E-5                   3.989226445928592
1.3199999999999999E-5     3.948601944305009
1.33E-5                   3.9084425335821225
1.3399999999999999E-5     3.8683646810481345
1.35E-5                   3.828783036294394
1.3599999999999999E-5     3.789716501439866
1.37E-5                   3.7510549662546486
1.38E-5                   3.712693228960531
1.3899999999999999E-5     3.674753621662791
1.4E-5                    3.6372007021036135
1.4099999999999999E-5     3.6000658096183056
1.42E-5                   3.56325179685912
1.4299999999999999E-5     3.5268311798270076
1.44E-5                   3.4907615721711793
1.45E-5                   3.4550480710809683
1.4599999999999999E-5     3.419725860208448
1.47E-5                   3.384748288527645
1.4799999999999999E-5     3.350134246041434
1.49E-5                   3.3158629973653277
1.4999999999999999E-5     3.281929750172675
1.51E-5                   3.248457731250062
1.52E-5                   3.215332584443719
1.53E-5                   3.182222207618926
1.5399999999999998E-5     3.1495656117609205
1.55E-5                   3.117343748383437
1.56E-5                   3.0854257292419938
1.57E-5                   3.0537770903572596
1.5799999999999998E-5     3.0224848911121263
1.59E-5                   2.99152491562729
1.6E-5                    2.9608694137313014
1.61E-5                   2.9305719047211247
1.62E-5                   2.9004807688108505
1.63E-5                   2.870740142293255
1.64E-5                   2.8413211481812177
1.6499999999999998E-5     2.8121908485695513
1.66E-5                   2.7833494998866235
1.67E-5                   2.754825601205782
1.68E-5                   2.7265543815087017
1.69E-5                   2.6986164619084505
1.7E-5                    2.6709415346529917
1.71E-5                   2.6435345784740414
1.7199999999999998E-5     2.6164172580440357
1.73E-5                   2.5895847374620584
1.74E-5                   2.5630178336708456
1.75E-5                   2.536699275921722
1.76E-5                   2.5106713326436294
1.77E-5                   2.48480872708784
1.78E-5                   2.4594561992491415
1.7899999999999998E-5     2.434106934979345
1.8E-5                    2.409051863424435
1.81E-5                   2.384280955090171
1.82E-5                   2.359773737398555
1.8299999999999998E-5     2.3355532770361047
1.84E-5                   2.3115743049539588
1.85E-5                   2.2878330020408058
1.8599999999999998E-5     2.2643365819065675
1.87E-5                   2.241078276671406
1.88E-5                   2.218052020422877
1.89E-5                   2.1952736387637004
1.8999999999999998E-5     2.172736293886947
1.91E-5                   2.1504189222188117
1.92E-5                   2.128328858319189
1.9299999999999998E-5     2.1064555109918195
1.94E-5                   2.0848056409384617
1.95E-5                   2.063393614038555
1.96E-5                   2.0421995402001016
1.9699999999999998E-5     2.0212413229765933
1.98E-5                   2.00051631042532
1.99E-5                   1.979860566505428
1.9999999999999998E-5     1.9594624440690274
2.01E-5                   1.939339924988737
2.02E-5                   1.9193744471925056
2.03E-5                   1.8996110151762322
2.0399999999999998E-5     1.8800645440478658
2.05E-5                   1.8607379221870919
2.06E-5                   1.841605762954003
2.07E-5                   1.822675141363314
2.0799999999999997E-5     1.8039367307432457
2.09E-5                   1.7853882571447117
2.1E-5                    1.7670346504390886
2.1099999999999998E-5     1.7488627318885825
2.12E-5                   1.7308846276699759
2.13E-5                   1.713077058612209
2.14E-5                   1.6954717788814244
2.1499999999999997E-5     1.6780489982291176
2.16E-5                   1.660805658317707
2.17E-5                   1.643707576614168
2.1799999999999998E-5     1.6268107334090744
2.19E-5                   1.6101025023221203
2.2E-5                    1.5935163357208384
2.21E-5                   1.5770815460729408
2.2199999999999998E-5     1.5608124226108593
2.23E-5                   1.5447040514140291
2.24E-5                   1.528782232597294
2.2499999999999998E-5     1.5130220851272491
2.26E-5                   1.4974498964870828
2.27E-5                   1.482127276320377
2.28E-5                   1.4668046684476073
2.2899999999999998E-5     1.4517831274299808
2.3E-5                    1.436802678699451
2.31E-5                   1.4220536684523477
2.3199999999999998E-5     1.4074108248885584
2.33E-5                   1.3929282750427816
2.34E-5                   1.378611791758953
2.35E-5                   1.3643901086251982
2.3599999999999998E-5     1.3503930533850106
2.37E-5                   1.3364284603915335
2.38E-5                   1.3227484063284938
2.3899999999999998E-5     1.3090683611608553
2.4E-5                    1.2956626022131243
2.41E-5                   1.2822846436300965
2.42E-5                   1.2691226493193133
2.4299999999999998E-5     1.2560473329802602
2.44E-5                   1.2431244035358766
2.45E-5                   1.2303425792485119
2.4599999999999998E-5     1.2176516553231103
2.4699999999999997E-5     1.2051496605562713
2.48E-5                   1.192686337101177
2.49E-5                   1.1804807580933256
2.4999999999999998E-5     1.1682751852903859
2.51E-5                   1.1563048402277265
2.52E-5                   1.1443505687528424
2.53E-5                   1.1326081758879085
2.5399999999999997E-5     1.1209264082365156
2.55E-5                   1.1094013275174464
2.56E-5                   1.0979759323965452
2.5699999999999998E-5     1.0866318485738327
2.58E-5                   1.0754142489898906
2.59E-5                   1.0643122416600337
2.6E-5                    1.0533428511151404
2.6099999999999997E-5     1.042503347923046
2.62E-5                   1.0317598515809001
2.63E-5                   1.0211432562294926
2.6399999999999998E-5     1.0106262085193136
2.65E-5                   1.0002254622217759
2.66E-5                   0.989926365605621
2.67E-5                   0.9797359569663135
2.6799999999999998E-5     0.969650081449657
2.69E-5                   0.95966478234328
2.7E-5                    0.9497879738140673
2.7099999999999998E-5     0.9400045768335794
2.7199999999999997E-5     0.9303318674655889
2.73E-5                   0.9207487913008247
2.74E-5                   0.911273552590039
2.7499999999999998E-5     0.9018883424216909
2.76E-5                   0.8925918791568797
2.77E-5                   0.8833821304289805
2.7799999999999998E-5     0.874258499557705
2.7899999999999997E-5     0.8652467839188814
2.8E-5                    0.8563200841095876
2.81E-5                   0.8474925762045691
2.8199999999999998E-5     0.838759402765702
2.83E-5                   0.8301296109549818
2.84E-5                   0.8215766336426988
2.8499999999999998E-5     0.8131233698518018
2.8599999999999997E-5     0.804748917039854
2.87E-5                   0.7964624319035087
2.88E-5                   0.7882633494656569
2.8899999999999998E-5     0.780143813171349
2.9E-5                    0.7721128651010077
2.91E-5                   0.7641624363489646
2.9199999999999998E-5     0.7562911680248442
2.9299999999999997E-5     0.7485066411380813
2.94E-5                   0.7407960414917582
2.95E-5                   0.7331695947266469
2.9599999999999998E-5     0.7256201697560973
2.97E-5                   0.7181493133705039
2.98E-5                   0.7107407395229076
2.99E-5                   0.7034070240174256
2.9999999999999997E-5     0.6961396773456631
3.01E-5                   0.6889511814742606
3.02E-5                   0.6818404958967087
3.0299999999999998E-5     0.6748107444547055
3.04E-5                   0.667860950653288
3.05E-5                   0.660982597115445
3.06E-5                   0.6541707784895929
3.07E-5                   0.6474385414742129
3.0799999999999996E-5     0.6407691306747152
3.09E-5                   0.6341688541423162
3.1E-5                    0.6276483404955862
3.11E-5                   0.6211800231063851
3.12E-5                   0.6147932784022018
3.13E-5                   0.6084560004748072
3.14E-5                   0.6021844203652482
3.15E-5                   0.5959930904710272
3.1599999999999996E-5     0.5898499014364492
3.17E-5                   0.583769814991343
3.18E-5                   0.5777678502928875
3.1899999999999996E-5     0.5718125763937056
3.2E-5                    0.5659178882967508
3.21E-5                   0.5600997049392004
3.22E-5                   0.5543267533622926
3.23E-5                   0.5486116603600683
3.24E-5                   0.5429716465945553
3.25E-5                   0.5373754670010901
3.26E-5                   0.5318345018233075
3.2699999999999995E-5     0.5263671664376152
3.28E-5                   0.5209423470231047
3.29E-5                   0.5155702810373411
3.2999999999999996E-5     0.5102703159404951
3.31E-5                   0.5050115778067799
3.32E-5                   0.4998032324784716
3.3299999999999996E-5     0.49466559665643217
3.34E-5                   0.4895678717876843
3.35E-5                   0.4845181409195263
3.36E-5                   0.4795379455079314
3.37E-5                   0.47459633692930303
3.38E-5                   0.46970032093691955
3.39E-5                   0.46486173573420697
3.4E-5                    0.4600683286485761
3.4099999999999995E-5     0.4553216311203173
3.42E-5                   0.45061132173530555
3.43E-5                   0.4459438853911721
3.4399999999999996E-5     0.44134752598632926
3.45E-5                   0.4367853608215999
3.46E-5                   0.43227469191382367
3.4699999999999996E-5     0.4278205182898377
3.48E-5                   0.42341453025658243
3.49E-5                   0.4190524281204661
3.5E-5                    0.41473855200408066
3.51E-5                   0.4104667287509577
3.52E-5                   0.4062451997422456
3.53E-5                   0.4020610461257778
3.54E-5                   0.39791826153149673
3.5499999999999996E-5     0.39381780186186693
3.56E-5                   0.38975873739127487
3.57E-5                   0.3857474457600477
3.5799999999999996E-5     0.381776822627732
3.59E-5                   0.37785979115749846
3.6E-5                    0.3739702911986806
3.6099999999999997E-5     0.37010441217801854
3.62E-5                   0.3663093589952754
3.63E-5                   0.36251430598690754
3.64E-5                   0.35880044521066007
3.65E-5                   0.3550966987588315
3.6599999999999995E-5     0.3514402661693093
3.67E-5                   0.3478260682614819
3.68E-5                   0.3442264834413971
3.6899999999999996E-5     0.3406995316380429
3.7E-5                    0.33717257998813205
3.71E-5                   0.33374739992894886
3.7199999999999996E-5     0.33034661831363055
3.73E-5                   0.3269458368317147
3.74E-5                   0.3235450554775564
3.75E-5                   0.3201580479530227
3.76E-5                   0.3169195272933968
3.77E-5                   0.3136810067577281
3.78E-5                   0.3104424863411406
3.79E-5                   0.30720396603875766
3.7999999999999995E-5     0.30402156886680687
3.81E-5                   0.30093759394504294
3.82E-5                   0.29785361912926084
3.8299999999999996E-5     0.29476964441525205
3.84E-5                   0.29168566979880745
3.85E-5                   0.2887399110592726
3.8599999999999996E-5     0.2858714230746346
3.87E-5                   0.2830029351757819
3.88E-5                   0.28013444735932613
3.89E-5                   0.27726595962187933
3.9E-5                    0.2743974719600525
3.9099999999999995E-5     0.27152898437045764
3.92E-5                   0.2686604968497058
3.93E-5                   0.26579200939440856
3.9399999999999995E-5     0.2629764473755515
3.95E-5                   0.26037534183490574
3.96E-5                   0.2577742363689356
3.9699999999999996E-5     0.2551731309751163
3.98E-5                   0.25257202565092224
3.99E-5                   0.2499709203938284
3.9999999999999996E-5     0.2473698152013099
4.01E-5                   0.24476871007084103
4.02E-5                   0.2421676049998968
4.03E-5                   0.23956649998595203
4.04E-5                   0.23714832959480064
4.0499999999999995E-5     0.23478969368546915
4.06E-5                   0.23243105782657061
4.07E-5                   0.23007242201622136
4.0799999999999996E-5     0.22771378625253746
4.09E-5                   0.22535515053363453
4.1E-5                    0.22299651485762853
4.1099999999999996E-5     0.2206378792226357
4.12E-5                   0.21827924362677137
4.13E-5                   0.21601851850727383
4.14E-5                   0.21397471536987922
4.15E-5                   0.21193091226695554
4.1599999999999995E-5     0.20988710919727802
4.17E-5                   0.20784330615962152
4.18E-5                   0.20579950315276116
4.1899999999999995E-5     0.20375570017547215
4.2E-5                    0.2017118972265292
4.21E-5                   0.19966809430470753
4.2199999999999996E-5     0.19762429140878224
4.23E-5                   0.19558048853752813
4.24E-5                   0.19353668568972024
4.2499999999999996E-5     0.1914928828641337
4.26E-5                   0.18944908005954333
4.27E-5                   0.18740527727472414
4.28E-5                   0.18536147450845125
4.29E-5                   0.18331767175949942
4.2999999999999995E-5     0.1812738690266438
4.31E-5                   0.1792300663086591
4.32E-5                   0.1773406760839216
4.3299999999999995E-5     0.1756610149592014
4.34E-5                   0.17398135386280786
4.35E-5                   0.1723016927940615
4.3599999999999996E-5     0.17062203175228266
4.37E-5                   0.16894237073679155
4.38E-5                   0.1672627097469086
4.3899999999999996E-5     0.16558304878195423
4.4E-5                    0.16390338784124855
4.41E-5                   0.16222372692411197
4.42E-5                   0.16054406602986496
4.43E-5                   0.15886440515782754
4.4399999999999995E-5     0.15718474430732035
4.45E-5                   0.15550508347766342
4.46E-5                   0.1538254226681771
4.4699999999999996E-5     0.1521457618781819
4.48E-5                   0.15046610110699785
4.49E-5                   0.14878644035394534
4.4999999999999996E-5     0.14710677961834479
4.51E-5                   0.1455879287109794
4.52E-5                   0.14420767290220343
4.5299999999999997E-5     0.1428274171040768
4.54E-5                   0.14144716131621998
4.5499999999999995E-5     0.14006690553825418
4.56E-5                   0.13868664976979986
4.57E-5                   0.13730639401047798
4.5799999999999995E-5     0.13592613825990948
4.59E-5                   0.134545882517715
4.6E-5                    0.13316562678351535
4.6099999999999996E-5     0.13178537105693158
4.62E-5                   0.13040511533758423
4.63E-5                   0.12902485962509416
4.6399999999999996E-5     0.1276446039190824
4.65E-5                   0.1262643482191694
4.66E-5                   0.12488409252497618
4.67E-5                   0.1235038368361237
4.68E-5                   0.12212358115223242
4.6899999999999995E-5     0.12074332547292345
4.7E-5                    0.11952242516956472
4.71E-5                   0.1183872746487551
4.7199999999999995E-5     0.11725212413565136
4.73E-5                   0.11611697363004579
4.74E-5                   0.11498182313173069
4.7499999999999996E-5     0.11384667264049854
4.76E-5                   0.11271152215614146
4.77E-5                   0.11157637167845184
4.7799999999999996E-5     0.11044122120722212
4.79E-5                   0.10930607074224447
4.8E-5                    0.10817092028331125
4.81E-5                   0.10703576983021486
4.82E-5                   0.10590061938274747
4.8299999999999995E-5     0.1047654689407016
4.84E-5                   0.10363031850386933
4.85E-5                   0.10249516807204315
4.8599999999999995E-5     0.10136001764501539
4.87E-5                   0.10022486722257822
4.88E-5                   0.09908971680452407
4.8899999999999996E-5     0.09811012520393951
4.9E-5                    0.09717879816846181
4.91E-5                   0.09624747113647326
4.9199999999999997E-5     0.0953161441078558
4.93E-5                   0.0943848170824912
4.9399999999999995E-5     0.09345349006026148
4.95E-5                   0.09252216304104835
4.96E-5                   0.09159083602473385
4.9699999999999995E-5     0.09065950901119985
4.98E-5                   0.08972818200032816
4.99E-5                   0.08879685499200067
4.9999999999999996E-5     0.08786552798609942
5.01E-5                   0.08693420098250611
5.02E-5                   0.0860028739811027
5.0299999999999996E-5     0.08507154698177113
5.04E-5                   0.08414021998439317
5.05E-5                   0.0832088929888508
5.06E-5                   0.0822775659950259
5.07E-5                   0.08134623900280029
5.0799999999999995E-5     0.08055823222687951
5.09E-5                   0.07979046481883634
5.1E-5                    0.07902269741267193
5.1099999999999995E-5     0.07825493000832277
5.12E-5                   0.07748716260572526
5.13E-5                   0.07671939520481585
5.1399999999999996E-5     0.07595162780553108
5.15E-5                   0.07518386040780732
5.16E-5                   0.07441609301158106
5.1699999999999996E-5     0.07364832561678886
5.18E-5                   0.07288055822336698
5.1899999999999994E-5     0.07211279083125205
5.2E-5                    0.07134502344038042
5.21E-5                   0.0705772560506886
5.2199999999999995E-5     0.0698094886621131
5.23E-5                   0.06904172127459027
5.24E-5                   0.0682739538880566
5.2499999999999995E-5     0.06750618650244863
5.26E-5                   0.06673841911770272
5.27E-5                   0.06610838936386733
5.2799999999999996E-5     0.06547984795754741
5.29E-5                   0.06485130655238873
5.3E-5                    0.06422276514835512
5.3099999999999996E-5     0.06359422374541054
5.32E-5                   0.06296568234351875
5.3299999999999995E-5     0.062337140942643726
5.34E-5                   0.06170859954274924
5.35E-5                   0.06108005814379921
5.3599999999999995E-5     0.06045151674575757
5.37E-5                   0.059822975348588055
5.38E-5                   0.05919443395225464
5.3899999999999996E-5     0.0585658925567212
5.4E-5                    0.05793735116195154
5.41E-5                   0.057308809767909565
5.4199999999999996E-5     0.05668026837455918
5.43E-5                   0.0560517269818642
5.4399999999999994E-5     0.055423185589788544
5.4499999999999997E-5     0.05480596941690375
5.46E-5                   0.05428806607643413
5.4699999999999995E-5     0.05377016273639527
5.48E-5                   0.05325225939676672
5.49E-5                   0.05273435605752816
5.4999999999999995E-5     0.05221645271865921
5.51E-5                   0.05169854938013944
5.52E-5                   0.051180646041948524
5.5299999999999996E-5     0.05066274270406608
5.54E-5                   0.05014483936647168
5.55E-5                   0.049626936029144995
5.5599999999999996E-5     0.04910903269206566
5.57E-5                   0.04859112935521323
5.5799999999999994E-5     0.04807322601856741
5.59E-5                   0.04755532268210772
5.6E-5                    0.04703741934581386
5.6099999999999995E-5     0.04651951600966543
5.62E-5                   0.04600161267364204
5.63E-5                   0.045483709337723326
5.6399999999999995E-5     0.04498532723002317
5.65E-5                   0.04455804508445898
5.66E-5                   0.04413076293917263
5.6699999999999996E-5     0.04370348079415417
5.68E-5                   0.04327619864939351
5.69E-5                   0.04284891650488067
5.6999999999999996E-5     0.042421634360605684
5.71E-5                   0.04199435221655847
5.7199999999999994E-5     0.04156707007272907
5.73E-5                   0.04113978792910742
5.74E-5                   0.040712505785683535
5.7499999999999995E-5     0.04028522364244743
5.76E-5                   0.039857941499389045
5.77E-5                   0.039430659356498386
5.7799999999999995E-5     0.039003377213765476
5.79E-5                   0.03857609507118025
5.8E-5                    0.03814881292873271
5.8099999999999996E-5     0.037721530786412896
5.82E-5                   0.037294248644210715
5.8299999999999994E-5     0.03689434185601624
5.8399999999999997E-5     0.036550402080682665
5.85E-5                   0.03620646230563423
5.8599999999999995E-5     0.03586252253086336
5.87E-5                   0.03551858275636246
5.88E-5                   0.03517464298212396
5.8899999999999995E-5     0.03483070320814031
5.9E-5                    0.034486763434403885
5.91E-5                   0.034142823660907144
5.9199999999999996E-5     0.033798883887642524
5.93E-5                   0.03345494411460239
5.94E-5                   0.033111004341779236
5.9499999999999996E-5     0.03276706456916546
5.96E-5                   0.032423124796753466
5.9699999999999994E-5     0.03207918502453571
5.98E-5                   0.031735245252504575
5.99E-5                   0.031391305480652526
5.9999999999999995E-5     0.031047365708971982
6.01E-5                   0.030703425937455342
6.02E-5                   0.030375723812851224
6.0299999999999995E-5     0.030068560605708027
6.04E-5                   0.029761397397431687
6.05E-5                   0.029454234188019075
6.0599999999999996E-5     0.029147070977467104
6.07E-5                   0.028839907765772617
6.08E-5                   0.028532744552932487
6.0899999999999996E-5     0.028225581338943616
6.1E-5                    0.027918418123802843
6.11E-5                   0.027611254907507092
6.12E-5                   0.027304091690053184
6.13E-5                   0.026996928471438017
6.14E-5                   0.026689765251658476
6.149999999999999E-5      0.02641355837986947
6.159999999999999E-5      0.026150458721407956
6.17E-5                   0.02588735906444527
6.18E-5                   0.02562425940897942
6.19E-5                   0.02536115975500842
6.2E-5                    0.025098060102530285
6.209999999999999E-5      0.024834960451543056
6.22E-5                   0.024571860802044685
6.23E-5                   0.024313042306011775
6.24E-5                   0.02407351590639335
6.25E-5                   0.023833989505120314
6.26E-5                   0.023594463102189763
6.269999999999999E-5      0.02335493669759882
6.28E-5                   0.02311541029134451
6.29E-5                   0.022875883883423972
6.3E-5                    0.022636357473834287
6.31E-5                   0.022401788152630695
6.319999999999999E-5      0.022169355364941815
6.33E-5                   0.021936922578893188
6.34E-5                   0.021704489794483604
6.35E-5                   0.02147205701171183
6.36E-5                   0.021239624230576626
6.37E-5                   0.02102162268393204
6.379999999999999E-5      0.020810974449371872
6.39E-5                   0.020600326213216273
6.4E-5                    0.020389677975463594
6.41E-5                   0.020179029736112138
6.42E-5                   0.01997081303125569
6.429999999999999E-5      0.019763741768299092
6.44E-5                   0.01955667050686584
6.45E-5                   0.01934959924695488
6.46E-5                   0.019148208423870088
6.47E-5                   0.01895417885947911
6.48E-5                   0.01876014929404223
6.489999999999999E-5      0.018566119727558363
6.5E-5                    0.01837436987964874
6.51E-5                   0.018183586207361838
6.52E-5                   0.017992802535703775
6.53E-5                   0.017803970061455655
6.539999999999999E-5      0.017618884295920064
6.549999999999999E-5      0.017433798530531217
6.56E-5                   0.017252101774521515