% Model:              20230225_JW_4_20.mph
% Version:            COMSOL 5.6.0.401
% Date:               Feb 25 2023, 20:44
% Dimension:          1
% Nodes:              1501
% Expressions:        1
% Description:        点图
% X                       Height
0                         4.185841206610822
1.0E-7                    4.181928647208454
2.0E-7                    4.189324931256797
3.0E-7                    4.265801361206599
4.0E-7                    4.350971740416167
5.0E-7                    4.400151761914555
6.0E-7                    4.434289767859817
7.0E-7                    4.455668063224599
8.0E-7                    4.464169676304246
9.0E-7                    4.4623606235915165
1.0E-6                    4.4543193246619985
1.1E-6                    4.439934257211445
1.2E-6                    4.419035734329396
1.2999999999999998E-6     4.39364492330984
1.4E-6                    4.364746625242643
1.5E-6                    4.33288046099835
1.6E-6                    4.298719751214266
1.6999999999999998E-6     4.2630827460619845
1.8E-6                    4.226186074854997
1.9E-6                    4.188322719864079
2.0E-6                    4.149590218536835
2.1E-6                    4.110373340957483
2.2E-6                    4.070984856216827
2.3E-6                    4.031518228787146
2.4E-6                    3.992038257768531
2.4999999999999998E-6     3.952655718305132
2.5999999999999997E-6     3.913503845933832
2.7E-6                    3.8746694812944584
2.8E-6                    3.8358606614512842
2.8999999999999998E-6     3.7969984185450274
3.0E-6                    3.7570054509506363
3.1E-6                    3.7137826709525967
3.2E-6                    3.679203061648281
3.2999999999999997E-6     3.6453614988972123
3.3999999999999996E-6     3.6084289273514605
3.5E-6                    3.5725357935580146
3.6E-6                    3.5365988058836844
3.6999999999999997E-6     3.501006851557529
3.8E-6                    3.4658959818865136
3.9E-6                    3.4309294588727903
4.0E-6                    3.396398143126518
4.1E-6                    3.361929190662006
4.2E-6                    3.327849073285237
4.2999999999999995E-6     3.2941078809619713
4.4E-6                    3.260701044536272
4.5E-6                    3.227567647265164
4.6E-6                    3.194741761050014
4.7E-6                    3.1622485423130637
4.8E-6                    3.130183869207064
4.9E-6                    3.0960862952160793
4.9999999999999996E-6     3.066039490321867
5.0999999999999995E-6     3.0365219145010416
5.199999999999999E-6      3.005326139411419
5.3E-6                    2.9740215190662074
5.4E-6                    2.943747128862825
5.5E-6                    2.9137561188560746
5.6E-6                    2.8839499375692172
5.7E-6                    2.854456970777438
5.7999999999999995E-6     2.8253379985852902
5.899999999999999E-6      2.7969759418500764
6.0E-6                    2.7671343228978937
6.1E-6                    2.7385808639182923
6.2E-6                    2.711091906251189
6.3E-6                    2.6837166798961456
6.4E-6                    2.656180169527914
6.5E-6                    2.6291651877875695
6.5999999999999995E-6     2.6024105241463604
6.699999999999999E-6      2.5758822573416245
6.799999999999999E-6      2.5488130961536335
6.9E-6                    2.5226326561475134
7.0E-6                    2.4973503585656363
7.1E-6                    2.471863344179248
7.2E-6                    2.446644256857426
7.2999999999999996E-6     2.421718462474222
7.3999999999999995E-6     2.3969719735944244
7.499999999999999E-6      2.3724710231601622
7.6E-6                    2.3487152767004544
7.699999999999999E-6      2.3240809770050026
7.8E-6                    2.3000692587501357
7.899999999999999E-6      2.2766603300615236
8.0E-6                    2.2535152441693462
8.1E-6                    2.2303556355302594
8.2E-6                    2.2074909851877784
8.3E-6                    2.184965732857748
8.4E-6                    2.1625529761753617
8.5E-6                    2.140424322840754
8.599999999999999E-6      2.118333408643732
8.7E-6                    2.0970069661974526
8.8E-6                    2.075676676261068
8.9E-6                    2.054158036942756
9.0E-6                    2.0330622568346524
9.1E-6                    2.0121738053581906
9.2E-6                    1.9914961496654218
9.299999999999999E-6      1.971094622556382
9.4E-6                    1.9508762698814965
9.499999999999999E-6      1.9309672093642396
9.6E-6                    1.9109237418321385
9.7E-6                    1.8910402339808325
9.8E-6                    1.8718789599583407
9.9E-6                    1.8526861737751312
9.999999999999999E-6      1.8336951889484965
1.01E-5                   1.8149309655504
1.0199999999999999E-5     1.7962522209657685
1.03E-5                   1.7778329905043824
1.0399999999999999E-5     1.7595834716618157
1.05E-5                   1.741513240607459
1.06E-5                   1.7236337159891413
1.07E-5                   1.705935922873373
1.08E-5                   1.688414108441021
1.0899999999999999E-5     1.671074557206954
1.1E-5                    1.6539109779350871
1.1099999999999999E-5     1.6369208505895056
1.12E-5                   1.6201072339086817
1.13E-5                   1.6034575358292664
1.14E-5                   1.5869854746365994
1.15E-5                   1.5706736183012795
1.1599999999999999E-5     1.5545382956221772
1.17E-5                   1.5385714985822658
1.1799999999999999E-5     1.5232845309205243
1.19E-5                   1.5063856975202752
1.2E-5                    1.4904907264752847
1.21E-5                   1.4756498927551913
1.22E-5                   1.4608933811086187
1.2299999999999999E-5     1.4459757265616044
1.24E-5                   1.431102961387402
1.2499999999999999E-5     1.4165126768120224
1.26E-5                   1.4019761781799769
1.2699999999999999E-5     1.3876364086748314
1.28E-5                   1.3733690790390933
1.29E-5                   1.3592947467551522
1.3E-5                    1.3452929709244899
1.31E-5                   1.3315033866110886
1.3199999999999999E-5     1.3177868851163328
1.33E-5                   1.3041748838375593
1.3399999999999999E-5     1.2909286423094473
1.35E-5                   1.2777028978161484
1.3599999999999999E-5     1.2644708793834198
1.37E-5                   1.2514359657117666
1.38E-5                   1.2385749301122764
1.3899999999999999E-5     1.225806509582942
1.4E-5                    1.2131986349747785
1.4099999999999999E-5     1.2007287724193396
1.42E-5                   1.188368981040178
1.4299999999999999E-5     1.1761399675051363
1.44E-5                   1.1640397077851037
1.45E-5                   1.152053336310756
1.4599999999999999E-5     1.1402173149655452
1.47E-5                   1.128480610641624
1.4799999999999999E-5     1.116880150389499
1.49E-5                   1.1053894203397974
1.4999999999999999E-5     1.0940189357272703
1.51E-5                   1.0827533845754551
1.52E-5                   1.0715830402142401
1.53E-5                   1.0607668082948085
1.5399999999999998E-5     1.0498460370392768
1.55E-5                   1.0389458160019682
1.56E-5                   1.0282137483513443
1.57E-5                   1.0176373025264172
1.5799999999999998E-5     1.0071515351561793
1.59E-5                   0.9967710258142722
1.6E-5                    0.9865170178233527
1.61E-5                   0.9763494281660714
1.62E-5                   0.9663111203859869
1.63E-5                   0.9563780406342426
1.64E-5                   0.9465210597097992
1.6499999999999998E-5     0.9367770640641133
1.66E-5                   0.927132401761977
1.67E-5                   0.9175923618005606
1.68E-5                   0.9081416834203587
1.69E-5                   0.8988008372727695
1.7E-5                    0.8895472942315573
1.71E-5                   0.8803932427932983
1.7199999999999998E-5     0.8713262420600172
1.73E-5                   0.8623666090270806
1.74E-5                   0.8534867621006446
1.75E-5                   0.844699690597463
1.76E-5                   0.8360067401004108
1.77E-5                   0.8274143524138051
1.78E-5                   0.8188254809796738
1.7899999999999998E-5     0.8104107852819226
1.8E-5                    0.8020763455403718
1.81E-5                   0.793806497585085
1.82E-5                   0.7856213782864786
1.8299999999999998E-5     0.777524816313574
1.84E-5                   0.7695326152902764
1.85E-5                   0.7616015289509346
1.8599999999999998E-5     0.7537665146502436
1.87E-5                   0.7459962526463811
1.88E-5                   0.7383198692385253
1.89E-5                   0.7307167753182281
1.8999999999999998E-5     0.7231967285117804
1.91E-5                   0.7157538779732027
1.92E-5                   0.7083820525939404
1.9299999999999998E-5     0.701089494438898
1.94E-5                   0.6938644385781981
1.95E-5                   0.6867257570298206
1.96E-5                   0.6796575318019938
1.9699999999999998E-5     0.6726562415466583
1.98E-5                   0.6657172061844964
1.99E-5                   0.6589304207780072
1.9999999999999998E-5     0.6521264753788925
2.01E-5                   0.6453597075179138
2.02E-5                   0.6387018046155905
2.03E-5                   0.6321205759828387
2.0399999999999998E-5     0.6256077145949699
2.05E-5                   0.6191640926287554
2.06E-5                   0.6127806760745683
2.07E-5                   0.6064745300443747
2.0799999999999997E-5     0.6002285373121174
2.09E-5                   0.5940489870795559
2.1E-5                    0.587930011454693
2.1099999999999998E-5     0.5818773058991691
2.12E-5                   0.5758844193882106
2.13E-5                   0.569952070751158
2.14E-5                   0.5640862357626493
2.1499999999999997E-5     0.5582734729299702
2.16E-5                   0.5525264752429211
2.17E-5                   0.5468561029276569
2.1799999999999998E-5     0.541232755157028
2.19E-5                   0.5356549478374805
2.2E-5                    0.5301258550549358
2.21E-5                   0.5246548316812033
2.2199999999999998E-5     0.5192357671446686
2.23E-5                   0.5138674741198465
2.24E-5                   0.508565208238551
2.2499999999999998E-5     0.5033115953364725
2.26E-5                   0.49812948762394466
2.27E-5                   0.49302524628155614
2.28E-5                   0.4879210120250777
2.2899999999999998E-5     0.482919466275677
2.3E-5                    0.4779319386706386
2.31E-5                   0.473021105384133
2.3199999999999998E-5     0.4681454552786129
2.33E-5                   0.4633232988724486
2.34E-5                   0.4585565623849069
2.35E-5                   0.4538220645097353
2.3599999999999998E-5     0.44916395270269854
2.37E-5                   0.4445162365071292
2.38E-5                   0.4399596202813737
2.3899999999999998E-5     0.435403009028545
2.4E-5                    0.4309424587671558
2.41E-5                   0.4264916466290993
2.42E-5                   0.4221103751197969
2.4299999999999998E-5     0.417757015017207
2.44E-5                   0.4134548592593759
2.45E-5                   0.40920011725445893
2.4599999999999998E-5     0.4049766956826129
2.4699999999999997E-5     0.4008183691401784
2.48E-5                   0.3966718893669957
2.49E-5                   0.3926043584147722
2.4999999999999998E-5     0.3885368310500252
2.51E-5                   0.384557489307655
2.52E-5                   0.3805841745133167
2.53E-5                   0.37669031286265814
2.5399999999999997E-5     0.37281202179665374
2.55E-5                   0.368971047378625
2.56E-5                   0.36516037021358
2.5699999999999998E-5     0.36138925624917695
2.58E-5                   0.35765212193045876
2.59E-5                   0.35395752380300965
2.6E-5                    0.3503056145351934
2.6099999999999997E-5     0.3466938215689414
2.62E-5                   0.3431196433268448
2.63E-5                   0.33958551878371307
2.6399999999999998E-5     0.33608696966201623
2.65E-5                   0.33262530924287836
2.66E-5                   0.32919881406605334
2.67E-5                   0.32580849455238925
2.6799999999999998E-5     0.32245287219866986
2.69E-5                   0.3191306856701655
2.7E-5                    0.31584487285938057
2.7099999999999998E-5     0.3125895578889668
2.7199999999999997E-5     0.309372063692733
2.73E-5                   0.30618381691443974
2.74E-5                   0.30303176604557364
2.7499999999999998E-5     0.2999096117302185
2.76E-5                   0.29682112229520163
2.77E-5                   0.2937545652762144
2.7799999999999998E-5     0.29071863049667584
2.7899999999999997E-5     0.28770747194494173
2.8E-5                    0.2847421300488873
2.81E-5                   0.2818088957935994
2.8199999999999998E-5     0.27890775185285466
2.83E-5                   0.2760359678348948
2.84E-5                   0.27319256803940667
2.8499999999999998E-5     0.270380200207657
2.8599999999999997E-5     0.26759603530557335
2.87E-5                   0.26483964021094225
2.88E-5                   0.26211279567844636
2.8899999999999998E-5     0.2594119144797875
2.9E-5                    0.25674093966413397
2.91E-5                   0.25409650150819235
2.9199999999999998E-5     0.25147867153046694
2.9299999999999997E-5     0.24888947083180832
2.94E-5                   0.24632492774098377
2.95E-5                   0.24378842038197637
2.9599999999999998E-5     0.2412774190683778
2.97E-5                   0.23879053575625622
2.98E-5                   0.2363255620960059
2.99E-5                   0.2338912440089219
2.9999999999999997E-5     0.23148268945227585
3.01E-5                   0.22908802528911562
3.02E-5                   0.226721690755177
3.0299999999999998E-5     0.22437980265238444
3.04E-5                   0.22206936506098077
3.05E-5                   0.21978062156267122
3.06E-5                   0.21751594258286758
3.07E-5                   0.21527588041996806
3.0799999999999996E-5     0.21305780029312135
3.09E-5                   0.21086281031437037
3.1E-5                    0.20869385226961576
3.11E-5                   0.20654316010518953
3.12E-5                   0.20441894086752918
3.13E-5                   0.20231121535427016
3.14E-5                   0.20022573714886407
3.15E-5                   0.19816689574455204
3.1599999999999996E-5     0.19612387338138476
3.17E-5                   0.19410147404733746
3.18E-5                   0.19210585835837896
3.1899999999999996E-5     0.19012562372725228
3.2E-5                    0.18816495385288234
3.21E-5                   0.18623027997165778
3.22E-5                   0.18431063777649298
3.23E-5                   0.182410032704389
3.24E-5                   0.1805344479214058
3.25E-5                   0.17867350967274978
3.26E-5                   0.17683104004353617
3.2699999999999995E-5     0.17501285309599812
3.28E-5                   0.17320885947615436
3.29E-5                   0.1714225543611674
3.2999999999999996E-5     0.16966011965293634
3.31E-5                   0.16791139685464446
3.32E-5                   0.16617945963455913
3.3299999999999996E-5     0.16447106888361215
3.34E-5                   0.16277593995700823
3.35E-5                   0.16109674854251438
3.36E-5                   0.1594407056707032
3.37E-5                   0.15779751234122574
3.38E-5                   0.1561695026629723
3.39E-5                   0.15456278099876095
3.4E-5                    0.1529676881229487
3.4099999999999995E-5     0.15138367762827676
3.42E-5                   0.1498134846431187
3.43E-5                   0.1482676019278414
3.4399999999999996E-5     0.14673560121031462
3.45E-5                   0.14521840190026977
3.46E-5                   0.14371803282429169
3.4699999999999996E-5     0.14224213670244212
3.48E-5                   0.14077587016759902
3.49E-5                   0.13932760480125553
3.5E-5                    0.13789211716913627
3.51E-5                   0.13647286078861046
3.52E-5                   0.13506905038032915
3.53E-5                   0.13367802370770493
3.54E-5                   0.13230078438528486
3.5499999999999996E-5     0.13093702466709642
3.56E-5                   0.12958759751452395
3.57E-5                   0.12825401566985487
3.5799999999999996E-5     0.12693360134338685
3.59E-5                   0.12563114974424103
3.6E-5                    0.12433800313457315
3.6099999999999997E-5     0.12305265779207722
3.62E-5                   0.12179070392644757
3.63E-5                   0.12052875016074605
3.64E-5                   0.11929390792896778
3.65E-5                   0.11806244308984139
3.6599999999999995E-5     0.11684671473278406
3.67E-5                   0.1156450335361907
3.68E-5                   0.11444819919548414
3.6899999999999996E-5     0.11327545555486254
3.7E-5                    0.11210271200194791
3.71E-5                   0.1109638571372355
3.7199999999999996E-5     0.10983312668058236
3.73E-5                   0.10870239630154119
3.74E-5                   0.10757166599662947
3.75E-5                   0.10644551459409192
3.76E-5                   0.10536872512121175
3.77E-5                   0.10429193571939427
3.78E-5                   0.10321514638563146
3.79E-5                   0.1021383571169151
3.7999999999999995E-5     0.10108023257896516
3.81E-5                   0.10005484006720673
3.82E-5                   0.09902944761736052
3.8299999999999996E-5     0.0980040552268295
3.84E-5                   0.09697866289301647
3.85E-5                   0.09599922963268386
3.8599999999999996E-5     0.09504549019057805
3.87E-5                   0.09409175079854114
3.88E-5                   0.09313801145448308
3.89E-5                   0.092184272156314
3.9E-5                    0.0912305329019437
3.9099999999999995E-5     0.09027679368928225
3.92E-5                   0.08932305451623951
3.93E-5                   0.08836931538072546
3.9399999999999995E-5     0.0874331752143726
3.95E-5                   0.08656834689562609
3.96E-5                   0.08570351861959463
3.9699999999999996E-5     0.08483869038472007
3.98E-5                   0.08397386218944414
3.99E-5                   0.08310903403220866
3.9999999999999996E-5     0.08224420591145545
4.01E-5                   0.08137937782562618
4.02E-5                   0.08051454977316266
4.03E-5                   0.07964972175250674
4.04E-5                   0.07884573084361149
4.0499999999999995E-5     0.0780615388536297
4.06E-5                   0.07727734689423375
4.07E-5                   0.07649315496426196
4.0799999999999996E-5     0.07570896306255268
4.09E-5                   0.07492477118794408
4.1E-5                    0.07414057933927452
4.1099999999999996E-5     0.07335638751538232
4.12E-5                   0.07257219571510562
4.13E-5                   0.07182055257025773
4.14E-5                   0.07114102139756413
4.15E-5                   0.07046149024463594
4.1599999999999995E-5     0.06978195911071731
4.17E-5                   0.06910242799505226
4.18E-5                   0.06842289689688488
4.1899999999999995E-5     0.06774336581545932
4.2E-5                    0.06706383475001956
4.21E-5                   0.06638430369980973
4.2199999999999996E-5     0.06570477266407393
4.23E-5                   0.06502524164205617
4.24E-5                   0.0643457106330005
4.2499999999999996E-5     0.06366617963615111
4.26E-5                   0.06298664865075192
4.27E-5                   0.06230711767604707
4.28E-5                   0.06162758671128064
4.29E-5                   0.06094805575569662
4.2999999999999995E-5     0.06026852480853913
4.31E-5                   0.059588993869052156
4.32E-5                   0.058960784918949315
4.3299999999999995E-5     0.058402283508953795
4.34E-5                   0.05784378211570044
4.35E-5                   0.057285280738769755
4.3599999999999996E-5     0.05672677937774228
4.37E-5                   0.0561682780321984
4.38E-5                   0.055609776701718655
4.3899999999999996E-5     0.0550512753858836
4.4E-5                    0.05449277408427359
4.41E-5                   0.05393427279646919
4.42E-5                   0.0533757715220509
4.43E-5                   0.05281727026059912
4.4399999999999995E-5     0.05225876901169441
4.45E-5                   0.0517002677749172
4.46E-5                   0.05114176654984797
4.4699999999999996E-5     0.050583265336067246
4.48E-5                   0.050024764133155424
4.49E-5                   0.04946626294069305
4.4999999999999996E-5     0.048907761758260594
4.51E-5                   0.048402896827319034
4.52E-5                   0.047944258682536836
4.5299999999999997E-5     0.04748562054436783
4.54E-5                   0.04702698241257915
4.5499999999999995E-5     0.046568344286938124
4.56E-5                   0.04610970616721191
4.57E-5                   0.045651068053167806
4.5799999999999995E-5     0.04519242994457306
4.59E-5                   0.04473379184119488
4.6E-5                    0.044275153742800506
4.6099999999999996E-5     0.0438165156491572
4.62E-5                   0.043357877560032176
4.63E-5                   0.04289923947519268
4.6399999999999996E-5     0.042440601394405995
4.65E-5                   0.04198196331743929
4.66E-5                   0.04152332524405982
4.67E-5                   0.04106468717403487
4.68E-5                   0.04060604910713161
4.6899999999999995E-5     0.04014741104311734
4.7E-5                    0.039741321144206566
4.71E-5                   0.03936350762973355
4.7199999999999995E-5     0.038985694119394204
4.73E-5                   0.0386078806130589
4.74E-5                   0.03823006711059813
4.7499999999999996E-5     0.037852253611882325
4.76E-5                   0.03747444011678189
4.77E-5                   0.03709662662516729
4.7799999999999996E-5     0.03671881313690898
4.79E-5                   0.03634099965187738
4.8E-5                    0.03596318616994291
4.81E-5                   0.03558537269097606
4.82E-5                   0.035207559214847216
4.8299999999999995E-5     0.034829745741426874
4.84E-5                   0.0344519322705854
4.85E-5                   0.03407411880219329
4.8599999999999995E-5     0.033696305336120974
4.87E-5                   0.033318491872238856
4.88E-5                   0.03294067841041741
4.8899999999999996E-5     0.032615259504557896
4.9E-5                    0.03230609683320247
4.91E-5                   0.03199693416426625
4.9199999999999997E-5     0.031687771497677826
4.93E-5                   0.0313786088333657
4.9399999999999995E-5     0.03106944617125847
4.95E-5                   0.030760283511284663
4.96E-5                   0.030451120853372853
4.9699999999999995E-5     0.030141958197451604
4.98E-5                   0.029832795543449434
4.99E-5                   0.02952363289129492
4.9999999999999996E-5     0.02921447024091664
5.01E-5                   0.0289053075922431
5.02E-5                   0.02859614494520288
5.0299999999999996E-5     0.028286982299724563
5.04E-5                   0.02797781965573665
5.05E-5                   0.027668657013167723
5.06E-5                   0.027359494371946347
5.07E-5                   0.02705033173200105
5.0799999999999995E-5     0.026788155710296035
5.09E-5                   0.02653261503636705
5.1E-5                    0.026277074363295173
5.1099999999999995E-5     0.026021533691040297
5.12E-5                   0.025765993019562287
5.13E-5                   0.025510452348821048
5.1399999999999996E-5     0.02525491167877647
5.15E-5                   0.024999371009388413
5.16E-5                   0.024743830340616776
5.1699999999999996E-5     0.024488289672421473
5.18E-5                   0.02423274900476234
5.1899999999999994E-5     0.023977208337599306
5.2E-5                    0.02372166767089222
5.21E-5                   0.023466127004600993
5.2199999999999995E-5     0.02321058633868552
5.23E-5                   0.022955045673105655
5.24E-5                   0.02269950500782129
5.2499999999999995E-5     0.02244396434279235
5.26E-5                   0.02218842367797867
5.27E-5                   0.021978824596331412
5.2799999999999996E-5     0.02176972194467069
5.29E-5                   0.021560619293745264
5.3E-5                    0.021351516643533176
5.3099999999999996E-5     0.02114241399401246
5.32E-5                   0.020933311345161135
5.3299999999999995E-5     0.02072420869695723
5.34E-5                   0.020515106049378756
5.35E-5                   0.020306003402403756
5.3599999999999995E-5     0.020096900756010266
5.37E-5                   0.019887798110176283
5.38E-5                   0.019678695464879856
5.3899999999999996E-5     0.01946959282009902
5.4E-5                    0.019260490175811776
5.41E-5                   0.019051387531996148
5.4199999999999996E-5     0.018842284888630205
5.43E-5                   0.018633182245691934
5.4399999999999994E-5     0.018424079603159376
5.4499999999999997E-5     0.01821883443862285
5.46E-5                   0.01804741617345361
5.4699999999999995E-5     0.017875997908682134
5.48E-5                   0.01770457964429613
5.49E-5                   0.01753316138028335
5.4999999999999995E-5     0.01736174311663154
5.51E-5                   0.017190324853328418
5.52E-5                   0.017018906590361736
5.5299999999999996E-5     0.016847488327719234
5.54E-5                   0.016676070065388633
5.55E-5                   0.01650465180335767
5.5599999999999996E-5     0.016333233541614107
5.57E-5                   0.01616181528014565
5.5799999999999994E-5     0.015990397018940058
5.59E-5                   0.01581897875798505
5.6E-5                    0.015647560497268374
5.6099999999999995E-5     0.015476142236777778
5.62E-5                   0.015304723976500964
5.63E-5                   0.015133305716425703
5.6399999999999995E-5     0.014967879257394333
5.65E-5                   0.014824276057086493
5.66E-5                   0.014680672856613414
5.6699999999999996E-5     0.014537069655968115
5.68E-5                   0.014393466455143599
5.69E-5                   0.014249863254132886
5.6999999999999996E-5     0.014106260052929
5.71E-5                   0.013962656851524943
5.7199999999999994E-5     0.013819053649913747
5.73E-5                   0.013675450448088414
5.74E-5                   0.013531847246041957
5.7499999999999995E-5     0.013388244043767416
5.76E-5                   0.013244640841257777
5.77E-5                   0.01310103763850607
5.7799999999999995E-5     0.012957434435505318
5.79E-5                   0.01281383123224852
5.8E-5                    0.012670228028728697
5.8099999999999996E-5     0.01252662482493888
5.82E-5                   0.012383021620872067
5.8299999999999994E-5     0.012249740841171393
5.8399999999999997E-5     0.012137563543110711
5.85E-5                   0.01202538624561175
5.8599999999999995E-5     0.011913208948671013
5.87E-5                   0.01180103165228499
5.88E-5                   0.011688854356450182
5.8899999999999995E-5     0.011576677061163105
5.9E-5                    0.01146449976642024
5.91E-5                   0.011352322472218093
5.9199999999999996E-5     0.011240145178553174
5.93E-5                   0.011127967885421966
5.94E-5                   0.01101579059282098
5.9499999999999996E-5     0.01090361330074672
5.96E-5                   0.01079143600919568
5.9699999999999994E-5     0.010679258718164362
5.98E-5                   0.010567081427649262
5.99E-5                   0.010454904137646881
5.9999999999999995E-5     0.010342726848153731
6.01E-5                   0.010230549559166293
6.02E-5                   0.010123254506246543
6.0299999999999995E-5     0.01002213496792702
6.04E-5                   0.009921015428346946
6.05E-5                   0.009819895887503661
6.0599999999999996E-5     0.009718776345394508
6.07E-5                   0.009617656802016808
6.08E-5                   0.009516537257367903
6.0899999999999996E-5     0.009415417711445133
6.1E-5                    0.009314298164245822
6.11E-5                   0.009213178615767316
6.12E-5                   0.00911205906600694
6.13E-5                   0.009010939514962032
6.14E-5                   0.00890981996262993
6.149999999999999E-5      0.008812583987039236
6.159999999999999E-5      0.00871699235623734
6.17E-5                   0.008621400726797032
6.18E-5                   0.008525809098716688
6.19E-5                   0.0084302174719947
6.2E-5                    0.008334625846629454
6.209999999999999E-5      0.008239034222619354
6.22E-5                   0.008143442599962757
6.23E-5                   0.008051731364508293
6.24E-5                   0.007977506258953401
6.25E-5                   0.007903281152556774
6.26E-5                   0.007829056045317256
6.269999999999999E-5      0.007754830937233697
6.28E-5                   0.007680605828304919
6.29E-5                   0.007606380718529775
6.3E-5                    0.0075321556079071044
6.31E-5                   0.007456072176977526
6.319999999999999E-5      0.007379187800743339
6.33E-5                   0.0073023034250562354
6.34E-5                   0.007225419049915011
6.35E-5                   0.007148534675318459
6.36E-5                   0.007071650301265367
6.37E-5                   0.006995929076075103
6.379999999999999E-5      0.0069208005234415206
6.39E-5                   0.006845671970851538
6.4E-5                    0.006770543418304425
6.41E-5                   0.006695414865799438
6.42E-5                   0.006628605587280677
6.429999999999999E-5      0.006565715327453204
6.44E-5                   0.006502825067113813
6.45E-5                   0.006439934806261668
6.46E-5                   0.006374842072366899
6.47E-5                   0.006306895161416669
6.48E-5                   0.006238948251317146
6.489999999999999E-5      0.006171001342067686
6.5E-5                    0.006106106136211693