% Model:              20230225_JW_4_20.mph
% Version:            COMSOL 5.6.0.401
% Date:               Feb 25 2023, 20:40
% Dimension:          1
% Nodes:              1501
% Expressions:        1
% Description:        点图
% X                       Height
0                         24.721046049061684
1.0E-7                    24.695650336924068
2.0E-7                    24.61275806467983
3.0E-7                    24.5002352323884
4.0E-7                    24.375772532606273
5.0E-7                    24.259985266635077
6.0E-7                    24.131345748841238
7.0E-7                    23.943542493382548
8.0E-7                    23.769252042907038
9.0E-7                    23.59001132923955
1.0E-6                    23.41613254978643
1.1E-6                    23.233902681757407
1.2E-6                    23.04912739302354
1.2999999999999998E-6     22.86286613802096
1.4E-6                    22.678412300186547
1.5E-6                    22.495281553874758
1.6E-6                    22.311396193213916
1.6999999999999998E-6     22.127815937936514
1.8E-6                    21.94475802337368
1.9E-6                    21.76245265422688
2.0E-6                    21.58183245886903
2.1E-6                    21.399510340787398
2.2E-6                    21.22112161481402
2.3E-6                    21.040338834567073
2.4E-6                    20.86294186396792
2.4999999999999998E-6     20.682157262811184
2.5999999999999997E-6     20.50593095890102
2.7E-6                    20.338568216371986
2.8E-6                    20.116451675643027
2.8999999999999998E-6     20.019090432207197
3.0E-6                    19.801311535802522
3.1E-6                    19.654694726657343
3.2E-6                    19.47097199743561
3.2999999999999997E-6     19.286747180048263
3.3999999999999996E-6     19.119685744799135
3.5E-6                    18.95285106886955
3.6E-6                    18.780323064007156
3.6999999999999997E-6     18.615527177732766
3.8E-6                    18.44645673667018
3.9E-6                    18.280133710437305
4.0E-6                    18.11426049264496
4.1E-6                    17.949810950312205
4.2E-6                    17.78615539724661
4.2999999999999995E-6     17.623687253485425
4.4E-6                    17.461910343550077
4.5E-6                    17.301310262322744
4.6E-6                    17.141222427942502
4.7E-6                    16.982026080232885
4.8E-6                    16.843967084106065
4.9E-6                    16.679593810651276
4.9999999999999996E-6     16.507339323704908
5.0999999999999995E-6     16.363883336533988
5.199999999999999E-6      16.209576679985673
5.3E-6                    16.056682763372546
5.4E-6                    15.905872021136778
5.5E-6                    15.756224992263643
5.6E-6                    15.608435926636778
5.7E-6                    15.461566402307074
5.7999999999999995E-6     15.297593301238951
5.899999999999999E-6      15.179823973583053
6.0E-6                    15.027860141193894
6.1E-6                    14.884328900069217
6.2E-6                    14.7407043040783
6.3E-6                    14.60022946878536
6.4E-6                    14.460585545463719
6.5E-6                    14.323895841971801
6.5999999999999995E-6     14.184497555255199
6.699999999999999E-6      14.045497695308182
6.799999999999999E-6      13.911124637562429
6.9E-6                    13.779709552979453
7.0E-6                    13.64566457041698
7.1E-6                    13.513402017921004
7.2E-6                    13.382572470407938
7.2999999999999996E-6     13.253088658630098
7.3999999999999995E-6     13.123377443199427
7.499999999999999E-6      12.995370692924809
7.6E-6                    12.866377272425305
7.699999999999999E-6      12.74503606932323
7.8E-6                    12.62167652597379
7.899999999999999E-6      12.497000758311744
8.0E-6                    12.374338504129728
8.1E-6                    12.253374420318535
8.2E-6                    12.1333030150533
8.3E-6                    12.014663229109793
8.4E-6                    11.897723532445376
8.5E-6                    11.782543303892288
8.599999999999999E-6      11.661639021488062
8.7E-6                    11.54806352717463
8.8E-6                    11.433907946316317
8.9E-6                    11.320955195087166
9.0E-6                    11.20879091832904
9.1E-6                    11.098195786111354
9.2E-6                    10.988411437880155
9.299999999999999E-6      10.878787897928033
9.4E-6                    10.766000435361537
9.499999999999999E-6      10.665912471835513
9.6E-6                    10.55975799284894
9.7E-6                    10.454269138054544
9.8E-6                    10.350142103134225
9.9E-6                    10.246637202618913
9.999999999999999E-6      10.144335726131919
1.01E-5                   10.043322913828547
1.0199999999999999E-5     9.943091927100431
1.03E-5                   9.843588867361467
1.0399999999999999E-5     9.745135532712823
1.05E-5                   9.64761308845075
1.06E-5                   9.551073927715889
1.07E-5                   9.455485424134867
1.08E-5                   9.360742655533894
1.0899999999999999E-5     9.26691744798389
1.1E-5                    9.173985945184635
1.1099999999999999E-5     9.08187502851607
1.12E-5                   8.990801603415472
1.13E-5                   8.90016584243505
1.14E-5                   8.811380075772018
1.15E-5                   8.721268803594175
1.1599999999999999E-5     8.63673502759135
1.17E-5                   8.545764342448843
1.1799999999999999E-5     8.467442871309066
1.19E-5                   8.377755005391109
1.2E-5                    8.294329282513926
1.21E-5                   8.21005011539804
1.22E-5                   8.127071902746119
1.2299999999999999E-5     8.044426134311626
1.24E-5                   7.963335181655482
1.2499999999999999E-5     7.882547874055411
1.26E-5                   7.802949427916262
1.2699999999999999E-5     7.723907899476163
1.28E-5                   7.6457592369106315
1.29E-5                   7.5685614081751735
1.3E-5                    7.491957445507002
1.31E-5                   7.415529515030719
1.3199999999999999E-5     7.338838098587182
1.33E-5                   7.265514948372092
1.3399999999999999E-5     7.192513519414813
1.35E-5                   7.119394888111915
1.3599999999999999E-5     7.0471866122667155
1.37E-5                   6.975731472518136
1.38E-5                   6.904948566262102
1.3899999999999999E-5     6.834844511913107
1.4E-5                    6.765412696468736
1.4099999999999999E-5     6.696777027098989
1.42E-5                   6.628710522955562
1.4299999999999999E-5     6.561323949328339
1.44E-5                   6.494580368357658
1.45E-5                   6.428535649731336
1.4599999999999999E-5     6.363065845113743
1.47E-5                   6.298447528432202
1.4799999999999999E-5     6.234223923896812
1.49E-5                   6.170858128421697
1.4999999999999999E-5     6.108071070778326
1.51E-5                   6.044946215074034
1.52E-5                   5.983946640347554
1.53E-5                   5.922652201831739
1.5399999999999998E-5     5.86257322240808
1.55E-5                   5.802790926439718
1.56E-5                   5.7436951287320195
1.57E-5                   5.685063430138253
1.5799999999999998E-5     5.627192800084379
1.59E-5                   5.5695399768483
1.6E-5                    5.513244314539239
1.61E-5                   5.4564949926959825
1.62E-5                   5.40083022948436
1.63E-5                   5.345681550011406
1.64E-5                   5.291098166744976
1.6499999999999998E-5     5.237035205227276
1.66E-5                   5.183538729322679
1.67E-5                   5.1306009270553625
1.68E-5                   5.0781383576844075
1.69E-5                   5.026253425160705
1.7E-5                    4.9748791521837274
1.71E-5                   4.923958165346538
1.7199999999999998E-5     4.873658367992631
1.73E-5                   4.8237911749280595
1.74E-5                   4.774382701934401
1.75E-5                   4.725751644736241
1.76E-5                   4.677179261480042
1.77E-5                   4.6293136362482326
1.78E-5                   4.581836946311334
1.7899999999999998E-5     4.534840734619665
1.8E-5                    4.488349328374646
1.81E-5                   4.442394509592946
1.82E-5                   4.396795311055689
1.8299999999999998E-5     4.351769214695696
1.84E-5                   4.3071999637624465
1.85E-5                   4.263073684572099
1.8599999999999998E-5     4.219393251830708
1.87E-5                   4.176143833093451
1.88E-5                   4.133329749095014
1.89E-5                   4.090971317125075
1.8999999999999998E-5     4.049063244885009
1.91E-5                   4.007557520482695
1.92E-5                   3.9664613945301364
1.9299999999999998E-5     3.92580827366288
1.94E-5                   3.885466458811365
1.95E-5                   3.8457278546552063
1.96E-5                   3.8062445309052415
1.9699999999999998E-5     3.7669736515257632
1.98E-5                   3.7285312206755052
1.99E-5                   3.6901664112382226
1.9999999999999998E-5     3.6522538399983393
2.01E-5                   3.6148119999134734
2.02E-5                   3.5776347675927824
2.03E-5                   3.540910894292116
2.0399999999999998E-5     3.5045498106378132
2.05E-5                   3.468572676673425
2.06E-5                   3.432965955162974
2.07E-5                   3.3977292970520723
2.0799999999999997E-5     3.3628482121484393
2.09E-5                   3.328329889235472
2.1E-5                    3.2941509982961468
2.1099999999999998E-5     3.2603032516751678
2.12E-5                   3.226851361696902
2.13E-5                   3.193744011573471
2.14E-5                   3.160944317459252
2.1499999999999997E-5     3.128281269635505
2.16E-5                   3.0962174612140085
2.17E-5                   3.0644548172231407
2.1799999999999998E-5     3.033011564641775
2.19E-5                   3.001887567589939
2.2E-5                    2.9710121369703004
2.21E-5                   2.9404291110032825
2.2199999999999998E-5     2.9101328237705295
2.23E-5                   2.880139875104007
2.24E-5                   2.8504854192372835
2.2499999999999998E-5     2.821129269731483
2.26E-5                   2.792123976935832
2.27E-5                   2.7635826577082083
2.28E-5                   2.7350413384805847
2.2899999999999998E-5     2.70705992392767
2.3E-5                    2.6791549115420703
2.31E-5                   2.6516723976545706
2.3199999999999998E-5     2.6243836839405676
2.33E-5                   2.5973996969735356
2.34E-5                   2.5707314123216896
2.35E-5                   2.5442374990821555
2.3599999999999998E-5     2.5181567827025737
2.37E-5                   2.4921357225013105
2.38E-5                   2.4666376942308315
2.3899999999999998E-5     2.441139665960353
2.4E-5                    2.4161697147526655
2.41E-5                   2.391253272968975
2.42E-5                   2.366716566636512
2.4299999999999998E-5     2.3423322600456578
2.44E-5                   2.318249586121878
2.45E-5                   2.2944462135750716
2.4599999999999998E-5     2.270802883366204
2.4699999999999997E-5     2.2474922016156738
2.48E-5                   2.224252972048147
2.49E-5                   2.2014900420811636
2.4999999999999998E-5     2.1787271121141805
2.51E-5                   2.1563606011247987
2.52E-5                   2.1340211688571884
2.53E-5                   2.112223308054543
2.5399999999999997E-5     2.090473815725362
2.55E-5                   2.0688991405086155
2.56E-5                   2.0476670012601157
2.5699999999999998E-5     2.0265415750127875
2.58E-5                   2.005638048369336
2.59E-5                   1.9849597726846113
2.6E-5                    1.9645207180238105
2.6099999999999997E-5     1.9443141076626074
2.62E-5                   1.9242903656275603
2.63E-5                   1.9045005131131632
2.6399999999999998E-5     1.8848973103190023
2.65E-5                   1.8655070873159394
2.66E-5                   1.8463093347229906
2.67E-5                   1.8273084524489418
2.6799999999999998E-5     1.8085055960810794
2.69E-5                   1.7898936083725718
2.7E-5                    1.7714776171182733
2.7099999999999998E-5     1.7532321017614914
2.7199999999999997E-5     1.735201765063268
2.73E-5                   1.7173449668157832
2.74E-5                   1.6996687187256518
2.7499999999999998E-5     1.6821510510067643
2.76E-5                   1.6648819963988832
2.77E-5                   1.647712494535065
2.7799999999999998E-5     1.6307154292725825
2.7899999999999997E-5     1.6138785335935066
2.8E-5                    1.597231345195444
2.81E-5                   1.5807683783074387
2.8199999999999998E-5     1.5644818092382264
2.83E-5                   1.548383296134439
2.84E-5                   1.5324287667777272
2.8499999999999998E-5     1.5166641299935886
2.8599999999999997E-5     1.5010484592139317
2.87E-5                   1.485592560744605
2.88E-5                   1.4703040442031299
2.8899999999999998E-5     1.455164428376792
2.9E-5                    1.4401854722301262
2.91E-5                   1.4253591129897887
2.9199999999999998E-5     1.410684883943882
2.9299999999999997E-5     1.3961658226167457
2.94E-5                   1.3817797289703249
2.95E-5                   1.367567887217956
2.9599999999999998E-5     1.3534937600958294
2.97E-5                   1.339505702799785
2.98E-5                   1.325699097011719
2.99E-5                   1.3120131472496483
2.9999999999999997E-5     1.2984819208892995
3.01E-5                   1.2850866186679257
3.02E-5                   1.2718281105216578
3.0299999999999998E-5     1.2587191839201346
3.04E-5                   1.2457618004605704
3.05E-5                   1.2329374492472294
3.06E-5                   1.220236051280901
3.07E-5                   1.2076803933313882
3.0799999999999996E-5     1.1952435747373238
3.09E-5                   1.182933101377149
3.1E-5                    1.170773932439929
3.11E-5                   1.158709005856688
3.12E-5                   1.1467983224990734
3.13E-5                   1.1349797720907153
3.14E-5                   1.123282497321603
3.15E-5                   1.1117357108721473
3.1599999999999996E-5     1.100278487201854
3.17E-5                   1.0889381622541954
3.18E-5                   1.0777442724402755
3.1899999999999996E-5     1.0666373560908406
3.2E-5                    1.0556429540525625
3.21E-5                   1.0447914925880628
3.22E-5                   1.0340243169069525
3.23E-5                   1.0233648298271927
3.24E-5                   1.0128455152969598
3.25E-5                   1.0024078749538292
3.26E-5                   0.9920730305865842
3.2699999999999995E-5     0.9818757875643308
3.28E-5                   0.9717575903160257
3.29E-5                   0.9617372879321725
3.2999999999999996E-5     0.9518525417396145
3.31E-5                   0.9420440952879411
3.32E-5                   0.932328427482672
3.3299999999999996E-5     0.9227468728581287
3.34E-5                   0.9132387881234961
3.35E-5                   0.9038182639868434
3.36E-5                   0.8945307723044269
3.37E-5                   0.885313938130094
3.38E-5                   0.8761796017601589
3.39E-5                   0.867200731817558
3.4E-5                    0.8582504510840868
3.4099999999999995E-5     0.849367173500927
3.42E-5                   0.8406031843399279
3.43E-5                   0.8319150374918651
3.4399999999999996E-5     0.8233234591820736
3.45E-5                   0.8148133130876809
3.46E-5                   0.8063891461485646
3.4699999999999996E-5     0.7980784498788915
3.48E-5                   0.7898588069273684
3.49E-5                   0.7817157931673975
3.5E-5                    0.7736677542588141
3.51E-5                   0.7656984540101236
3.52E-5                   0.7578229780732406
3.53E-5                   0.7500180961491927
3.54E-5                   0.7422899320521147
3.5499999999999996E-5     0.7346402848229552
3.56E-5                   0.7270689940146867
3.57E-5                   0.7195869315501028
3.5799999999999996E-5     0.7121799631073139
3.59E-5                   0.7048733847867977
3.6E-5                    0.6976185607073
3.6099999999999997E-5     0.6904076536010091
3.62E-5                   0.6833284294812371
3.63E-5                   0.6762492053614649
3.64E-5                   0.6693214423976892
3.65E-5                   0.6624125470343858
3.6599999999999995E-5     0.6555920582665195
3.67E-5                   0.6488504855697861
3.68E-5                   0.6421361169616354
3.6899999999999996E-5     0.6355569649138476
3.7E-5                    0.6289778128660591
3.71E-5                   0.6225885521911975
3.7199999999999996E-5     0.6162448153626673
3.73E-5                   0.6099010785341368
3.74E-5                   0.6035573417056065
3.75E-5                   0.59723930807186
3.76E-5                   0.5911983664003864
3.77E-5                   0.5851574247289127
3.78E-5                   0.5791164830574397
3.79E-5                   0.5730755413859661
3.7999999999999995E-5     0.567139161892144
3.81E-5                   0.5613861515980854
3.82E-5                   0.5556331413040267
3.8299999999999996E-5     0.5498801310099686
3.84E-5                   0.5441271207159101
3.85E-5                   0.5386321066075914
3.8599999999999996E-5     0.5332813273796455
3.87E-5                   0.5279305481516992
3.88E-5                   0.5225797689237529
3.89E-5                   0.517228989695807
3.9E-5                    0.5118782104678606
3.9099999999999995E-5     0.5065274312399147
3.92E-5                   0.5011766520119683
3.93E-5                   0.49582587278402196
3.9399999999999995E-5     0.4905737685509792
3.95E-5                   0.4857215006015024
3.96E-5                   0.48086923265202575
3.9699999999999996E-5     0.4760169647025493
3.98E-5                   0.4711646967530726
3.99E-5                   0.4663124288035959
3.9999999999999996E-5     0.4614601608541195
4.01E-5                   0.4566078929046427
4.02E-5                   0.451755624955166
4.03E-5                   0.44690335700568956
4.04E-5                   0.44239239793729374
4.0499999999999995E-5     0.43799251481099943
4.06E-5                   0.4335926316847048
4.07E-5                   0.4291927485584101
4.0799999999999996E-5     0.42479286543211575
4.09E-5                   0.42039298230582123
4.1E-5                    0.41599309917952665
4.1099999999999996E-5     0.4115932160532323
4.12E-5                   0.4071933329269377
4.13E-5                   0.40297611756478197
4.14E-5                   0.3991636051873244
4.15E-5                   0.3953510928098666
4.1599999999999995E-5     0.391538580432409
4.17E-5                   0.3877260680549512
4.18E-5                   0.38391355567749336
4.1899999999999995E-5     0.38010104330003575
4.2E-5                    0.37628853092257797
4.21E-5                   0.37247601854512014
4.2199999999999996E-5     0.3686635061676626
4.23E-5                   0.3648509937902048
4.24E-5                   0.36103848141274697
4.2499999999999996E-5     0.3572259690352894
4.26E-5                   0.3534134566578316
4.27E-5                   0.3496009442803738
4.28E-5                   0.3457884319029162
4.29E-5                   0.34197591952545836
4.2999999999999995E-5     0.3381634071480008
4.31E-5                   0.33435089477054303
4.32E-5                   0.33082655572991637
4.3299999999999995E-5     0.32769362499860943
4.34E-5                   0.3245606942673024
4.35E-5                   0.32142776353599534
4.3599999999999996E-5     0.31829483280468845
4.37E-5                   0.3151619020733814
4.38E-5                   0.31202897134207436
4.3899999999999996E-5     0.30889604061076753
4.4E-5                    0.3057631098794604
4.41E-5                   0.3026301791481534
4.42E-5                   0.2994972484168465
4.43E-5                   0.29636431768553945
4.4399999999999995E-5     0.29323138695423256
4.45E-5                   0.2900984562229255
4.46E-5                   0.2869655254916184
4.4699999999999996E-5     0.28383259476031153
4.48E-5                   0.28069966402900454
4.49E-5                   0.2775667332976975
4.4999999999999996E-5     0.27443380256639066
4.51E-5                   0.2715992100880078
4.52E-5                   0.2690217425670537
4.5299999999999997E-5     0.2664442750460998
4.54E-5                   0.26386680752514574
4.5499999999999995E-5     0.26128934000419185
4.56E-5                   0.25871187248323774
4.57E-5                   0.2561344049622836
4.5799999999999995E-5     0.25355693744132973
4.59E-5                   0.2509794699203756
4.6E-5                    0.24840200239942153
4.6099999999999996E-5     0.24582453487846767
4.62E-5                   0.2432470673575136
4.63E-5                   0.24066959983655953
4.6399999999999996E-5     0.2380921323156056
4.65E-5                   0.2355146647946515
4.66E-5                   0.2329371972736974
4.67E-5                   0.2303597297527435
4.68E-5                   0.2277822622317894
4.6899999999999995E-5     0.22520479471083557
4.7E-5                    0.22292965165879972
4.71E-5                   0.22081719063626543
4.7199999999999995E-5     0.21870472961373125
4.73E-5                   0.21659226859119698
4.74E-5                   0.21447980756866264
4.7499999999999996E-5     0.21236734654612852
4.76E-5                   0.2102548855235942
4.77E-5                   0.20814242450105988
4.7799999999999996E-5     0.20602996347852573
4.79E-5                   0.2039175024559914
4.8E-5                    0.20180504143345715
4.81E-5                   0.19969258041092294
4.82E-5                   0.19758011938838865
4.8299999999999995E-5     0.19546765836585447
4.84E-5                   0.19335519734332016
4.85E-5                   0.1912427363207859
4.8599999999999995E-5     0.1891302752982517
4.87E-5                   0.1870178142757174
4.88E-5                   0.1849053532531831
4.8899999999999996E-5     0.18307325656583612
4.9E-5                    0.18132814731043
4.91E-5                   0.17958303805502387
4.9199999999999997E-5     0.17783792879961785
4.93E-5                   0.1760928195442117
4.9399999999999995E-5     0.1743477102888057
4.95E-5                   0.17260260103339958
4.96E-5                   0.17085749177799345
4.9699999999999995E-5     0.16911238252258742
4.98E-5                   0.16736727326718126
4.99E-5                   0.16562216401177515
4.9999999999999996E-5     0.16387705475636916
5.01E-5                   0.16213194550096302
5.02E-5                   0.16038683624555689
5.0299999999999996E-5     0.15864172699015086
5.04E-5                   0.15689661773474473
5.05E-5                   0.1551515084793386
5.06E-5                   0.15340639922393257
5.07E-5                   0.15166128996852646
5.0799999999999995E-5     0.15019766350971656
5.09E-5                   0.14877378743323283
5.1E-5                    0.1473499113567491
5.1099999999999995E-5     0.14592603528026546
5.12E-5                   0.14450215920378176
5.13E-5                   0.143078283127298
5.1399999999999996E-5     0.1416544070508144
5.15E-5                   0.14023053097433066
5.16E-5                   0.13880665489784696
5.1699999999999996E-5     0.13738277882136332
5.18E-5                   0.13595890274487957
5.1899999999999994E-5     0.13453502666839592
5.2E-5                    0.1331111505919122
5.21E-5                   0.1316872745154285
5.2199999999999995E-5     0.13026339843894486
5.23E-5                   0.12883952236246113
5.24E-5                   0.1274156462859774
5.2499999999999995E-5     0.12599177020949376
5.26E-5                   0.12456789413301003
5.27E-5                   0.12338673780078571
5.2799999999999996E-5     0.12220820421615759
5.29E-5                   0.12102967063152943
5.3E-5                    0.11985113704690124
5.3099999999999996E-5     0.11867260346227315
5.32E-5                   0.11749406987764495
5.3299999999999995E-5     0.11631553629301687
5.34E-5                   0.11513700270838868
5.35E-5                   0.11395846912376052
5.3599999999999995E-5     0.11277993553913242
5.37E-5                   0.11160140195450423
5.38E-5                   0.11042286836987605
5.3899999999999996E-5     0.10924433478524795
5.4E-5                    0.10806580120061977
5.41E-5                   0.10688726761599159
5.4199999999999996E-5     0.1057087340313635
5.43E-5                   0.10453020044673532
5.4399999999999994E-5     0.1033516668621072
5.4499999999999997E-5     0.10219470957289753
5.46E-5                   0.10122695860937027
5.4699999999999995E-5     0.10025920764584308
5.48E-5                   0.09929145668231583
5.49E-5                   0.09832370571878858
5.4999999999999995E-5     0.09735595475526139
5.51E-5                   0.09638820379173416
5.52E-5                   0.09542045282820691
5.5299999999999996E-5     0.09445270186467973
5.54E-5                   0.0934849509011525
5.55E-5                   0.09251719993762522
5.5599999999999996E-5     0.09154944897409806
5.57E-5                   0.09058169801057081
5.5799999999999994E-5     0.08961394704704363
5.59E-5                   0.08864619608351637
5.6E-5                    0.08767844511998912
5.6099999999999995E-5     0.08671069415646196
5.62E-5                   0.0857429431929347
5.63E-5                   0.08477519222940746
5.6399999999999995E-5     0.08384778038869933
5.65E-5                   0.08306729117382039
5.66E-5                   0.08228680195894146
5.6699999999999996E-5     0.08150631274406259
5.68E-5                   0.08072582352918366
5.69E-5                   0.07994533431430473
5.6999999999999996E-5     0.07916484509942584
5.71E-5                   0.07838435588454691
5.7199999999999994E-5     0.07760386666966804
5.73E-5                   0.07682337745478911
5.74E-5                   0.07604288823991019
5.7499999999999995E-5     0.07526239902503129
5.76E-5                   0.07448190981015236
5.77E-5                   0.07370142059527343
5.7799999999999995E-5     0.07292093138039456
5.79E-5                   0.07214044216551563
5.8E-5                    0.0713599529506367
5.8099999999999996E-5     0.07057946373575781
5.82E-5                   0.06979897452087887
5.8299999999999994E-5     0.06905119599426454
5.8399999999999997E-5     0.06837029220139913
5.85E-5                   0.06768938840853372
5.8599999999999995E-5     0.06700848461566836
5.87E-5                   0.06632758082280296
5.88E-5                   0.06564667702993753
5.8899999999999995E-5     0.06496577323707219
5.9E-5                    0.06428486944420678
5.91E-5                   0.06360396565134137
5.9199999999999996E-5     0.06292306185847601
5.93E-5                   0.062242158065610606
5.94E-5                   0.061561254272745204
5.9499999999999996E-5     0.060880350479879844
5.96E-5                   0.060199446687014435
5.9699999999999994E-5     0.059518542894149075
5.98E-5                   0.05883763910128366
5.99E-5                   0.05815673530841825
5.9999999999999995E-5     0.05747583151555289
6.01E-5                   0.05679492772268749
6.02E-5                   0.056181707696534536
6.0299999999999995E-5     0.05565410052864251
6.04E-5                   0.055126493360750456
6.05E-5                   0.054598886192858395
6.0599999999999996E-5     0.05407127902496637
6.07E-5                   0.05354367185707431
6.08E-5                   0.053016064689182255
6.0899999999999996E-5     0.05248845752129022
6.1E-5                    0.05196085035339816
6.11E-5                   0.05143324318550614
6.12E-5                   0.05090563601761408
6.13E-5                   0.05037802884972203
6.14E-5                   0.04985042168182995
6.149999999999999E-5      0.04934682274959512
6.159999999999999E-5      0.04885338913234212
6.17E-5                   0.04835995551508912
6.18E-5                   0.047866521897836106
6.19E-5                   0.047373088280583106
6.2E-5                    0.04687965466333009
6.209999999999999E-5      0.04638622104607717
6.22E-5                   0.045892787428824154
6.23E-5                   0.04540543290856084
6.24E-5                   0.04494547254016703
6.25E-5                   0.044485512171773225
6.26E-5                   0.04402555180337942
6.269999999999999E-5      0.04356559143498568
6.28E-5                   0.04310563106659187
6.29E-5                   0.04264567069819807
6.3E-5                    0.04218571032980426
6.31E-5                   0.04175329417517787
6.319999999999999E-5      0.04133274972425228
6.33E-5                   0.04091220527332664
6.34E-5                   0.040491660822400986
6.35E-5                   0.04007111637147535
6.36E-5                   0.0396505719205497
6.37E-5                   0.039240752153092244
6.379999999999999E-5      0.03883639705775183
6.39E-5                   0.038432041962411345
6.4E-5                    0.038027686867070885
6.41E-5                   0.03762333177173041
6.42E-5                   0.037238584579386766
6.429999999999999E-5      0.03686307422034619
6.44E-5                   0.03648756386130554
6.45E-5                   0.036112053502264894
6.46E-5                   0.035738757452593355
6.47E-5                   0.035368330919768605
6.48E-5                   0.03499790438694385
6.489999999999999E-5      0.03462747785411915
6.5E-5                    0.0342688336611406
6.51E-5                   0.03391518297918366
6.52E-5                   0.03356153229722672
6.53E-5                   0.033211909091043906
6.539999999999999E-5      0.032870019485839445
6.549999999999999E-5      0.03252812988063494
6.56E-5                   0.032190190190021686
6.57E-5                   0.03186070092940667
6.58E-5                   0.031531211668791644