% Model:              20230225_JW_4_20.mph
% Version:            COMSOL 5.6.0.401
% Date:               Feb 25 2023, 20:41
% Dimension:          1
% Nodes:              1501
% Expressions:        1
% Description:        点图
% X                       Height
0                         17.035629324318286
1.0E-7                    17.043003915816296
2.0E-7                    17.03313031595614
3.0E-7                    16.994135574962087
4.0E-7                    16.943249043331303
5.0E-7                    16.884868335092786
6.0E-7                    16.812654509847246
7.0E-7                    16.71744654089248
8.0E-7                    16.620455958440992
9.0E-7                    16.514202915946097
1.0E-6                    16.399454927650172
1.1E-6                    16.28036727227571
1.2E-6                    16.158656148414664
1.2999999999999998E-6     16.032908762698
1.4E-6                    15.90494155138452
1.5E-6                    15.775267364509473
1.6E-6                    15.6443419692318
1.6999999999999998E-6     15.512755666979386
1.8E-6                    15.380617047139978
1.9E-6                    15.248123825388388
2.0E-6                    15.115795106744324
2.1E-6                    14.98357377946847
2.2E-6                    14.851659969213191
2.3E-6                    14.72016177534535
2.4E-6                    14.589580884949415
2.4999999999999998E-6     14.458816067677315
2.5999999999999997E-6     14.328993287343078
2.7E-6                    14.2007624344558
2.8E-6                    14.065317948950755
2.8999999999999998E-6     13.937630569772546
3.0E-6                    13.820150354570577
3.1E-6                    13.690690601189008
3.2E-6                    13.564726815276689
3.2999999999999997E-6     13.44096067099996
3.3999999999999996E-6     13.317370573204569
3.5E-6                    13.195163510639919
3.6E-6                    13.073251316864729
3.6999999999999997E-6     12.95147650852837
3.8E-6                    12.831043618227119
3.9E-6                    12.711321449695403
4.0E-6                    12.592277680775066
4.1E-6                    12.474010650070674
4.2E-6                    12.356608344810464
4.2999999999999995E-6     12.240064116505916
4.4E-6                    12.124395462342562
4.5E-6                    12.009626964971702
4.6E-6                    11.8957411180896
4.7E-6                    11.78257592432858
4.8E-6                    11.671047522978395
4.9E-6                    11.560023090110924
4.9999999999999996E-6     11.448483023555108
5.0999999999999995E-6     11.339129372959338
5.199999999999999E-6      11.230068502073735
5.3E-6                    11.122508137311591
5.4E-6                    11.015294372892855
5.5E-6                    10.908936631148224
5.6E-6                    10.803735456654364
5.7E-6                    10.699367525909981
5.7999999999999995E-6     10.595601025635766
5.899999999999999E-6      10.492863472593035
6.0E-6                    10.391366168947199
6.1E-6                    10.29059064358432
6.2E-6                    10.190799927592044
6.3E-6                    10.091144874061532
6.4E-6                    9.992822972020758
6.5E-6                    9.895245999774389
6.5999999999999995E-6     9.798459107189725
6.699999999999999E-6      9.701335707968026
6.799999999999999E-6      9.607468329184242
6.9E-6                    9.513120314052074
7.0E-6                    9.420032320354213
7.1E-6                    9.32716000842458
7.2E-6                    9.23551297350233
7.2999999999999996E-6     9.144564928521282
7.3999999999999995E-6     9.054398439663327
7.499999999999999E-6      8.964699440223836
7.6E-6                    8.876139912817404
7.699999999999999E-6      8.788928460757628
7.8E-6                    8.701880977570848
7.899999999999999E-6      8.61563949089475
8.0E-6                    8.530125419323427
8.1E-6                    8.445456531134953
8.2E-6                    8.36159128816373
8.3E-6                    8.27851082063778
8.4E-6                    8.196108364767422
8.5E-6                    8.114596830076579
8.599999999999999E-6      8.033629974797728
8.7E-6                    7.953556989266363
8.8E-6                    7.874154160850443
8.9E-6                    7.795544876789413
9.0E-6                    7.717763159048125
9.1E-6                    7.640539414058954
9.2E-6                    7.564050764922025
9.299999999999999E-6      7.488388169216641
9.4E-6                    7.4133428207894125
9.499999999999999E-6      7.339102005640539
9.6E-6                    7.265402478110306
9.7E-6                    7.1927523656521615
9.8E-6                    7.120498523767429
9.9E-6                    7.048802861568887
9.999999999999999E-6      6.977989026486701
1.01E-5                   6.907791620871598
1.0199999999999999E-5     6.838285660422038
1.03E-5                   6.769422691289334
1.0399999999999999E-5     6.701200928350282
1.05E-5                   6.633657115690528
1.06E-5                   6.5668038247366365
1.07E-5                   6.500564365915923
1.08E-5                   6.4349835279156675
1.0899999999999999E-5     6.370024794914235
1.1E-5                    6.305699200854069
1.1099999999999999E-5     6.241989820383961
1.12E-5                   6.1789000910625775
1.13E-5                   6.116408385188029
1.14E-5                   6.054565535532138
1.15E-5                   5.993168830417565
1.1599999999999999E-5     5.932773699408684
1.17E-5                   5.871540172132915
1.1799999999999999E-5     5.813203897973648
1.19E-5                   5.75458953303751
1.2E-5                    5.696527646942189
1.21E-5                   5.638408759063617
1.22E-5                   5.581208792133374
1.2299999999999999E-5     5.5247708602412455
1.24E-5                   5.4686711801386725
1.2499999999999999E-5     5.4131532154278235
1.26E-5                   5.3581307034625585
1.2699999999999999E-5     5.303740683201113
1.28E-5                   5.249815731653338
1.29E-5                   5.196446512930491
1.3E-5                    5.1436310775771235
1.31E-5                   5.091296848109055
1.3199999999999999E-5     5.0398009173790514
1.33E-5                   4.988084707830698
1.3399999999999999E-5     4.937357670356778
1.35E-5                   4.8870878250362475
1.3599999999999999E-5     4.837307158598536
1.37E-5                   4.788041771283014
1.38E-5                   4.739236280939735
1.3899999999999999E-5     4.69091847942298
1.4E-5                    4.643079374197708
1.4099999999999999E-5     4.595810772760473
1.42E-5                   4.54893885031407
1.4299999999999999E-5     4.502538278763844
1.44E-5                   4.456592985468237
1.45E-5                   4.4111001030229104
1.4599999999999999E-5     4.3660878890847785
1.47E-5                   4.321533417140468
1.4799999999999999E-5     4.277416639036855
1.49E-5                   4.233751863138055
1.4999999999999999E-5     4.1905139667691085
1.51E-5                   4.147915841553436
1.52E-5                   4.1052327496938235
1.53E-5                   4.063203366015476
1.5399999999999998E-5     4.021710093100761
1.55E-5                   3.9806591720442275
1.56E-5                   3.9399913536077737
1.57E-5                   3.8996902219149887
1.5799999999999998E-5     3.8597983426989955
1.59E-5                   3.82029948685485
1.6E-5                    3.781217777283236
1.61E-5                   3.742518150926692
1.62E-5                   3.7042219501800266
1.63E-5                   3.6663110005373922
1.64E-5                   3.6287560173744215
1.6499999999999998E-5     3.59161879996844
1.66E-5                   3.554829227157189
1.67E-5                   3.5184506509465545
1.68E-5                   3.4824116593025005
1.69E-5                   3.4467647258795844
1.7E-5                    3.411461042698625
1.71E-5                   3.376499111547704
1.7199999999999998E-5     3.341903547221423
1.73E-5                   3.3076737862317733
1.74E-5                   3.2737712825565675
1.75E-5                   3.2402128274208395
1.76E-5                   3.206960397210781
1.77E-5                   3.1740839039132482
1.78E-5                   3.1415612136619417
1.7899999999999998E-5     3.1092533313783153
1.8E-5                    3.0773251679890117
1.81E-5                   3.0456917263418553
1.82E-5                   3.014459602007128
1.8299999999999998E-5     2.98352214117114
1.84E-5                   2.9529192330921625
1.85E-5                   2.9226190907922494
1.8599999999999998E-5     2.892633263127842
1.87E-5                   2.8629419838349817
1.88E-5                   2.8335562573269617
1.89E-5                   2.8044831601452698
1.8999999999999998E-5     2.7757088987021477
1.91E-5                   2.747227456611714
1.92E-5                   2.719023938255119
1.9299999999999998E-5     2.691107438755135
1.94E-5                   2.663462083949449
1.95E-5                   2.636133982224311
1.96E-5                   2.6090744333426628
1.9699999999999998E-5     2.582348176223702
1.98E-5                   2.5557415882052736
1.99E-5                   2.5294299177791992
1.9999999999999998E-5     2.5034405246330858
2.01E-5                   2.4777157248480037
2.02E-5                   2.4522364739931195
2.03E-5                   2.4270168000422414
2.0399999999999998E-5     2.4020641945475574
2.05E-5                   2.3773863032608187
2.06E-5                   2.3529577873549345
2.07E-5                   2.3287888389882543
2.0799999999999997E-5     2.304853914628099
2.09E-5                   2.2811732041726374
2.1E-5                    2.2577342109714773
2.1099999999999998E-5     2.234524455153694
2.12E-5                   2.2115711407615706
2.13E-5                   2.1888292829144755
2.14E-5                   2.1663440614629934
2.1499999999999997E-5     2.144110732666213
2.16E-5                   2.1220356171799644
2.17E-5                   2.100215075213775
2.1799999999999998E-5     2.078644861081356
2.19E-5                   2.057301714760015
2.2E-5                    2.0361244454956813
2.21E-5                   2.0151330473546625
2.2199999999999998E-5     1.9943572927304283
2.23E-5                   1.9737874763660292
2.24E-5                   1.9534525724435805
2.2499999999999998E-5     1.9333214940870664
2.26E-5                   1.9134340050727128
2.27E-5                   1.8938617773014799
2.28E-5                   1.8742895566369278
2.2899999999999998E-5     1.8551021773063217
2.3E-5                    1.8359673174173432
2.31E-5                   1.8171281870156029
2.3199999999999998E-5     1.7984247111187543
2.33E-5                   1.7799238005274087
2.34E-5                   1.7616327505366896
2.35E-5                   1.743464699807242
2.3599999999999998E-5     1.7255881046257298
2.37E-5                   1.7077522715589497
2.38E-5                   1.690273775375549
2.3899999999999998E-5     1.6727952842701406
2.4E-5                    1.6556696716503079
2.41E-5                   1.6385798199523798
2.42E-5                   1.6217672996113444
2.4299999999999998E-5     1.6050660836787882
2.44E-5                   1.5885550793312657
2.45E-5                   1.5722202043450826
2.4599999999999998E-5     1.5560054701066661
2.4699999999999997E-5     1.5400404441383841
2.48E-5                   1.524123126832496
2.49E-5                   1.508523813714384
2.4999999999999998E-5     1.4929245044652377
2.51E-5                   1.4776209753800829
2.52E-5                   1.46233765352636
2.53E-5                   1.4473362593429477
2.5399999999999997E-5     1.432416024169915
2.55E-5                   1.417695157262486
2.56E-5                   1.4030836633494648
2.5699999999999998E-5     1.3886115929703837
2.58E-5                   1.374278185950799
2.59E-5                   1.3600915077151445
2.6E-5                    1.3460864217870447
2.6099999999999997E-5     1.3322331307312403
2.62E-5                   1.3185120264460686
2.63E-5                   1.304944201727735
2.6399999999999998E-5     1.2915086444865493
2.65E-5                   1.2782187810298211
2.66E-5                   1.2650607453219538
2.67E-5                   1.2520387935812343
2.6799999999999998E-5     1.2391527280979844
2.69E-5                   1.2263945385219321
2.7E-5                    1.2137742368571647
2.7099999999999998E-5     1.201273841814703
2.7199999999999997E-5     1.1889143191718232
2.73E-5                   1.1766689851433958
2.74E-5                   1.164562449226763
2.7499999999999998E-5     1.1525704064587718
2.76E-5                   1.1406933351396642
2.77E-5                   1.1289308975767132
2.7799999999999998E-5     1.1172830610518099
2.7899999999999997E-5     1.1057583784471834
2.8E-5                    1.0943524683577737
2.81E-5                   1.0830682655409014
2.8199999999999998E-5     1.0719131057940747
2.83E-5                   1.0608789199050308
2.84E-5                   1.04995272223232
2.8499999999999998E-5     1.0391467137785528
2.8599999999999997E-5     1.0284474706037219
2.87E-5                   1.0178560873196765
2.88E-5                   1.0073805075220552
2.8899999999999998E-5     0.997004104436748
2.9E-5                    0.9867422207665354
2.91E-5                   0.9765825622179841
2.9199999999999998E-5     0.9665239830065222
2.9299999999999997E-5     0.9565767871648543
2.94E-5                   0.9467236608452192
2.95E-5                   0.9369781333781171
2.9599999999999998E-5     0.927330781547879
2.97E-5                   0.9177866032700623
2.98E-5                   0.9083033489232363
2.99E-5                   0.8989340785226902
2.9999999999999997E-5     0.8896505140791714
3.01E-5                   0.8804654823889185
3.02E-5                   0.8713834877079383
3.0299999999999998E-5     0.8623961748624277
3.04E-5                   0.8535208924517452
3.05E-5                   0.8447291233166667
3.06E-5                   0.8360271818699938
3.07E-5                   0.827422713149067
3.0799999999999996E-5     0.8189010464256968
3.09E-5                   0.8104652957328842
3.1E-5                    0.8021335581656271
3.11E-5                   0.7938677957482259
3.12E-5                   0.785705730048899
3.13E-5                   0.7776070409719751
3.14E-5                   0.7695929073407541
3.15E-5                   0.7616808981808904
3.1599999999999996E-5     0.753830251248592
3.17E-5                   0.7460601073686244
3.18E-5                   0.7383903083913897
3.1899999999999996E-5     0.7307800113375342
3.2E-5                    0.7232466282910198
3.21E-5                   0.7158115147122884
3.22E-5                   0.7084341509257218
3.23E-5                   0.7011304609843018
3.24E-5                   0.6939228796776649
3.25E-5                   0.6867712910029299
3.26E-5                   0.6796901715755752
3.2699999999999995E-5     0.6727032657118253
3.28E-5                   0.6657706103007022
3.29E-5                   0.6589052002251916
3.2999999999999996E-5     0.652132266526335
3.31E-5                   0.6454118492986327
3.32E-5                   0.6387554798351605
3.3299999999999996E-5     0.6321901250258838
3.34E-5                   0.6256754527132695
3.35E-5                   0.6192214833991047
3.36E-5                   0.6128576940871213
3.37E-5                   0.6065424685625305
3.38E-5                   0.600284162151123
3.39E-5                   0.5941028834591459
3.4E-5                    0.587984134320054
3.4099999999999995E-5     0.581919005808877
3.42E-5                   0.5758906730938081
3.43E-5                   0.5699369547998255
3.4399999999999996E-5     0.5640580579786333
3.45E-5                   0.5582281466909428
3.46E-5                   0.5524600436088998
3.4699999999999996E-5     0.54676848301484
3.48E-5                   0.5411349342219738
3.49E-5                   0.5355621027697127
3.5E-5                    0.5300452981256228
3.51E-5                   0.5245876200424332
3.52E-5                   0.5191913759034618
3.53E-5                   0.513843917537774
3.54E-5                   0.5085500130907005
3.5499999999999996E-5     0.5033087933222903
3.56E-5                   0.4981216038215017
3.57E-5                   0.4929953964071421
3.5799999999999996E-5     0.48792052639974287
3.59E-5                   0.48291454924294547
3.6E-5                    0.4779441202294701
3.6099999999999997E-5     0.473003728380063
3.62E-5                   0.46815340132306477
3.63E-5                   0.4633030743734924
3.64E-5                   0.45855687831027675
3.65E-5                   0.45382365397651947
3.6599999999999995E-5     0.44915074055705284
3.67E-5                   0.4445316636283894
3.68E-5                   0.4399312919834229
3.6899999999999996E-5     0.43542389364355044
3.7E-5                    0.430916495390163
3.71E-5                   0.42653910097668074
3.7199999999999996E-5     0.422192873254783
3.73E-5                   0.41784664561075374
3.74E-5                   0.4135004180445026
3.75E-5                   0.4091717918589338
3.76E-5                   0.40503291568179084
3.77E-5                   0.40089403957118797
3.78E-5                   0.3967551635270486
3.79E-5                   0.3926162875492954
3.7999999999999995E-5     0.3885491494973303
3.81E-5                   0.38460781716677983
3.82E-5                   0.3806664848937107
3.8299999999999996E-5     0.3767251526780549
3.84E-5                   0.37278382051974385
3.85E-5                   0.36901909245409703
3.8599999999999996E-5     0.36535309636990493
3.87E-5                   0.36168710033317814
3.88E-5                   0.35802110434386336
3.89E-5                   0.35435510840190715
3.9E-5                    0.35068911250725543
3.9099999999999995E-5     0.3470231166598551
3.92E-5                   0.343357120859652
3.93E-5                   0.33969112510659283
3.9399999999999995E-5     0.33609277614881217
3.95E-5                   0.33276853542148205
3.96E-5                   0.3294442947277877
3.9699999999999996E-5     0.32612005406768857
3.98E-5                   0.32279581344114366
3.99E-5                   0.31947157284811256
3.9999999999999996E-5     0.31614733228855485
4.01E-5                   0.3128230917624295
4.02E-5                   0.3094988512696961
4.03E-5                   0.3061746108103142
4.04E-5                   0.30308409414149284
4.0499999999999995E-5     0.30006964081923554
4.06E-5                   0.29705518752294807
4.07E-5                   0.29404073425260074
4.0799999999999996E-5     0.2910262810081639
4.09E-5                   0.28801182778960693
4.1E-5                    0.2849973745969003
4.1099999999999996E-5     0.281982921430014
4.12E-5                   0.2789684682889178
4.13E-5                   0.2760791747991512
4.14E-5                   0.2734671742297532
4.15E-5                   0.2708551736780762
4.1599999999999995E-5     0.26824317314410095
4.17E-5                   0.26563117262780767
4.18E-5                   0.26301917212917697
4.1899999999999995E-5     0.2604071716481895
4.2E-5                    0.25779517118482537
4.21E-5                   0.2551831707390653
4.2199999999999996E-5     0.25257117031089
4.23E-5                   0.2499591699002796
4.24E-5                   0.24734716950721466
4.2499999999999996E-5     0.24473516913167603
4.26E-5                   0.24212316877364362
4.27E-5                   0.2395111684330984
4.28E-5                   0.23689916811002074
4.29E-5                   0.2342871678043909
4.2999999999999995E-5     0.23167516751618983
4.31E-5                   0.22906316724539755
4.32E-5                   0.22664852072864378
4.3299999999999995E-5     0.2245019277950611
4.34E-5                   0.22235533486960843
4.35E-5                   0.22020874195227522
4.3599999999999996E-5     0.2180621490430511
4.37E-5                   0.2159155561419252
4.38E-5                   0.21376896324888703
4.3899999999999996E-5     0.21162237036392612
4.4E-5                    0.20947577748703164
4.41E-5                   0.20732918461819314
4.42E-5                   0.20518259175740006
4.43E-5                   0.20303599890464166
4.4399999999999995E-5     0.20088940605990763
4.45E-5                   0.198742813223187
4.46E-5                   0.1965962203944694
4.4699999999999996E-5     0.19444962757374434
4.48E-5                   0.19230303476100094
4.49E-5                   0.19015644195622883
4.4999999999999996E-5     0.18800984915941746
4.51E-5                   0.1860684847795636
4.52E-5                   0.18430399797825048
4.5299999999999997E-5     0.18253951118253783
4.54E-5                   0.18077502439241838
4.5499999999999995E-5     0.17901053760788507
4.56E-5                   0.17724605082893066
4.57E-5                   0.1754815640555481
4.5799999999999995E-5     0.17371707728773028
4.59E-5                   0.17195259052546996
4.6E-5                    0.17018810376876004
4.6099999999999996E-5     0.16842361701759354
4.62E-5                   0.16665913027196308
4.63E-5                   0.16489464353186156
4.6399999999999996E-5     0.16313015679728207
4.65E-5                   0.16136567006821723
4.66E-5                   0.15960118334465995
4.67E-5                   0.15783669662660335
4.68E-5                   0.1560722099140399
4.6899999999999995E-5     0.1543077232069628
4.7E-5                    0.15274776040413612
4.71E-5                   0.15129785274824473
4.7199999999999995E-5     0.14984794509485982
4.73E-5                   0.1483980374439795
4.74E-5                   0.14694812979560204
4.7499999999999996E-5     0.14549822214972574
4.76E-5                   0.14404831450634864
4.77E-5                   0.14259840686546904
4.7799999999999996E-5     0.1411484992270853
4.79E-5                   0.13969859159119533
4.8E-5                    0.13824868395779752
4.81E-5                   0.13679877632689008
4.82E-5                   0.13534886869847118
4.8299999999999995E-5     0.1338989610725391
4.84E-5                   0.1324490534490919
4.85E-5                   0.1309991458281279
4.8599999999999995E-5     0.1295492382096454
4.87E-5                   0.12809933059364242
4.88E-5                   0.12664942298011725
4.8899999999999996E-5     0.1253967548185122
4.9E-5                    0.12420528329131424
4.91E-5                   0.1230138117659518
4.9199999999999997E-5     0.12182234024242139
4.93E-5                   0.1206308687207193
4.9399999999999995E-5     0.11943939720084203
4.95E-5                   0.11824792568278586
4.96E-5                   0.11705645416654731
4.9699999999999995E-5     0.11586498265212283
4.98E-5                   0.11467351113950872
4.99E-5                   0.11348203962870142
4.9999999999999996E-5     0.11229056811969745
5.01E-5                   0.11109909661249308
5.02E-5                   0.10990762510708475
5.0299999999999996E-5     0.10871615360346897
5.04E-5                   0.10752468210164201
5.05E-5                   0.10633321060160036
5.06E-5                   0.10514173910334049
5.07E-5                   0.1039502676068587
5.0799999999999995E-5     0.10294398583700762
5.09E-5                   0.10196385615421934
5.1E-5                    0.10098372647221325
5.1099999999999995E-5     0.1000035967909898
5.12E-5                   0.09902346711054916
5.13E-5                   0.09804333743089179
5.1399999999999996E-5     0.09706320775201807
5.15E-5                   0.0960830780739282
5.16E-5                   0.0951029483966226
5.1699999999999996E-5     0.09412281872010168
5.18E-5                   0.09314268904436565
5.1899999999999994E-5     0.092162559369415
5.2E-5                    0.09118242969524992
5.21E-5                   0.09020230002187081
5.2199999999999995E-5     0.08922217034927811
5.23E-5                   0.08824204067747202
5.24E-5                   0.08726191100645293
5.2499999999999995E-5     0.08628178133622125
5.26E-5                   0.08530165166677724
5.27E-5                   0.08449598162158145
5.2799999999999996E-5     0.08369219672870365
5.29E-5                   0.08288841183636052
5.3E-5                    0.08208462694455071
5.3099999999999996E-5     0.08128084205327286
5.32E-5                   0.08047705716252547
5.3299999999999995E-5     0.07967327227230724
5.34E-5                   0.07886948738261666
5.35E-5                   0.07806570249345242
5.3599999999999995E-5     0.07726191760481314
5.37E-5                   0.07645813271669734
5.38E-5                   0.07565434782910369
5.3899999999999996E-5     0.07485056294203078
5.4E-5                    0.07404677805547716
5.41E-5                   0.0732429931694415
5.4199999999999996E-5     0.07243920828392238
5.43E-5                   0.07163542339891837
5.4399999999999994E-5     0.07083163851442817
5.4499999999999997E-5     0.07004227941770459
5.46E-5                   0.06937942258459978
5.4699999999999995E-5     0.0687165657518747
5.48E-5                   0.06805370891952907
5.49E-5                   0.06739085208756271
5.4999999999999995E-5     0.06672799525597545
5.51E-5                   0.06606513842476698
5.52E-5                   0.06540228159393717
5.5299999999999996E-5     0.06473942476348576
5.54E-5                   0.06407656793341251
5.55E-5                   0.06341371110371723
5.5599999999999996E-5     0.06275085427439975
5.57E-5                   0.062087997445459744
5.5799999999999994E-5     0.06142514061689711
5.59E-5                   0.060762283788711506
5.6E-5                    0.060099426960902785
5.6099999999999995E-5     0.05943657013347078
5.62E-5                   0.05877371330641516
5.63E-5                   0.05811085647973579
5.6399999999999995E-5     0.057473887420038526
5.65E-5                   0.056931206445624
5.66E-5                   0.05638852547121086
5.6699999999999996E-5     0.05584584449679954
5.68E-5                   0.05530316352239037
5.69E-5                   0.0547604825479838
5.6999999999999996E-5     0.0542178015735803
5.71E-5                   0.05367512059918017
5.7199999999999994E-5     0.053132439624783916
5.73E-5                   0.052589758650391845
5.74E-5                   0.05204707767600444
5.7499999999999995E-5     0.0515043967016221
5.76E-5                   0.0509617157272452
5.77E-5                   0.05041903475287418
5.7799999999999995E-5     0.04987635377850947
5.79E-5                   0.04933367280415141
5.8E-5                    0.048790991829800436
5.8099999999999996E-5     0.04824831085545702
5.82E-5                   0.047705629881121474
5.8299999999999994E-5     0.04719462474738223
5.8399999999999997E-5     0.04674837867330268
5.85E-5                   0.046302132599550884
5.8599999999999995E-5     0.04585588652612539
5.87E-5                   0.04540964045302464
5.88E-5                   0.04496339438024719
5.8899999999999995E-5     0.04451714830779155
5.9E-5                    0.04407090223565619
5.91E-5                   0.04362465616383965
5.9199999999999996E-5     0.04317841009234046
5.93E-5                   0.04273216402115707
5.94E-5                   0.04228591795028803
5.9499999999999996E-5     0.04183967187973187
5.96E-5                   0.04139342580948705
5.9699999999999994E-5     0.04094717973955212
5.98E-5                   0.04050093366992554
5.99E-5                   0.040054687600605855
5.9999999999999995E-5     0.039608441531591605
6.01E-5                   0.03916219546288123
6.02E-5                   0.03874190668953288
6.0299999999999995E-5     0.038354451169086465
6.04E-5                   0.03796699564866857
6.05E-5                   0.03757954012828022
6.0599999999999996E-5     0.03719208460792253
6.07E-5                   0.03680462908759648
6.08E-5                   0.03641717356730313
6.0899999999999996E-5     0.036029718047043566
6.1E-5                    0.03564226252681877
6.11E-5                   0.03525480700662984
6.12E-5                   0.034867351486477766
6.13E-5                   0.03447989596636364
6.14E-5                   0.03409244044628848
6.149999999999999E-5      0.033745242176625494
6.159999999999999E-5      0.033415089209019644
6.17E-5                   0.03308493624132288
6.18E-5                   0.032754783273534614
6.19E-5                   0.0324246303056542
6.2E-5                    0.032094477337681025
6.209999999999999E-5      0.03176432436961452
6.22E-5                   0.03143417140145397
6.23E-5                   0.03110699609128175
6.24E-5                   0.03079323896125776
6.25E-5                   0.03047948183152433
6.26E-5                   0.030165724702081648
6.269999999999999E-5      0.02985196757292993
6.28E-5                   0.029538210444069315
6.29E-5                   0.02922445331550001
6.3E-5                    0.02891069618722223
6.31E-5                   0.028612224018585777
6.319999999999999E-5      0.028320339749105045
6.33E-5                   0.02802845547932232
6.34E-5                   0.02773657120923765
6.35E-5                   0.027444686938851055
6.36E-5                   0.027152802668162553
6.37E-5                   0.02687433095459204
6.379999999999999E-5      0.02660269349702151
6.39E-5                   0.02633105603993717
6.4E-5                    0.026059418583338812
6.41E-5                   0.02578778112722617
6.42E-5                   0.02552142530725946
6.429999999999999E-5      0.0252575575443729
6.44E-5                   0.024993689781012313
6.45E-5                   0.024729822017177983
6.46E-5                   0.024472978071763036
6.47E-5                   0.024225236272372844
6.48E-5                   0.023977494473533145
6.489999999999999E-5      0.02372975267524369
6.5E-5                    0.0234837466846711
6.51E-5                   0.0232384763517552
6.52E-5                   0.022993206018374596
6.53E-5                   0.02275173087505574
6.539999999999999E-5      0.02251754329624797
6.549999999999999E-5      0.02228335571779835
6.56E-5                   0.022052075002095516
6.57E-5                   0.021827013215087565