% Model:              20230225_JW_4_40.mph
% Version:            COMSOL 5.6.0.401
% Date:               Feb 25 2023, 21:09
% Dimension:          1
% Nodes:              1001
% Expressions:        1
% Description:        点图
% X                       Height
0                         15.348819969060816
1.0E-7                    15.251743317527348
2.0E-7                    14.992388751454637
3.0E-7                    14.630300329011149
4.0E-7                    14.189964721815873
5.0E-7                    13.719378377981366
6.0E-7                    13.22273773280027
7.0E-7                    12.718819225101377
8.0E-7                    12.22765260014084
9.0E-7                    11.748516802453768
1.0E-6                    11.280916917128382
1.1E-6                    10.828368363066792
1.2E-6                    10.393048440812066
1.2999999999999998E-6     9.972911838763762
1.4E-6                    9.567361358560573
1.5E-6                    9.176299917326041
1.6E-6                    8.800304203971582
1.6999999999999998E-6     8.437757352641082
1.8E-6                    8.088027946775405
1.9E-6                    7.751341620977293
2.0E-6                    7.428782531349147
2.1E-6                    7.118487129784756
2.2E-6                    6.820037068313689
2.3E-6                    6.532463588145016
2.4E-6                    6.259172171922793
2.4999999999999998E-6     5.994181024423338
2.5999999999999997E-6     5.740139654291124
2.7E-6                    5.496515190957626
2.8E-6                    5.262967401279939
2.8999999999999998E-6     5.037428137934141
3.0E-6                    4.821470747895359
3.1E-6                    4.615471080651101
3.2E-6                    4.4171493003456
3.2999999999999997E-6     4.226553729990772
3.3999999999999996E-6     4.043586119396091
3.5E-6                    3.8684093658170835
3.6E-6                    3.7011498927246875
3.6999999999999997E-6     3.541209929786874
3.8E-6                    3.3892312661643587
3.9E-6                    3.2441504761834916
4.0E-6                    3.1051705856033873
4.1E-6                    2.9720325561882017
4.2E-6                    2.8448816304557867
4.2999999999999995E-6     2.7229760582511777
4.4E-6                    2.6068695380817917
4.5E-6                    2.4950528302003674
4.6E-6                    2.3878697369988733
4.7E-6                    2.2851488198553667
4.8E-6                    2.1867691209810607
4.9E-6                    2.0932231750661994
4.9999999999999996E-6     2.0035538527903256
5.0999999999999995E-6     1.9189521998210513
5.199999999999999E-6      1.8365644415808804
5.3E-6                    1.7567894979830045
5.4E-6                    1.682392646102896
5.5E-6                    1.6079962606157145
5.6E-6                    1.540801675350159
5.7E-6                    1.4736313024620549
5.7999999999999995E-6     1.410560718693064
5.899999999999999E-6      1.3495421135076966
6.0E-6                    1.2915690081282423
6.1E-6                    1.2359005004085388
6.2E-6                    1.1824685862414503
6.3E-6                    1.1315383342512635
6.4E-6                    1.0828692050432416
6.5E-6                    1.0358072647232082
6.5999999999999995E-6     0.9917486959905526
6.699999999999999E-6      0.9486684071722693
6.799999999999999E-6      0.90815668650095
6.9E-6                    0.8690667108187239
7.0E-6                    0.8314666337635701
7.1E-6                    0.7959933939376793
7.2E-6                    0.7613162908772186
7.2999999999999996E-6     0.7289341291038731
7.3999999999999995E-6     0.6974641865150353
7.499999999999999E-6      0.6674087466652528
7.6E-6                    0.6388472283905273
7.699999999999999E-6      0.6109465621601547
7.8E-6                    0.5850542791999798
7.899999999999999E-6      0.5597210896550475
8.0E-6                    0.5356926328740776
8.1E-6                    0.5126996080780881
8.2E-6                    0.49040531953279803
8.3E-6                    0.4695494019543472
8.4E-6                    0.44915435170720275
8.5E-6                    0.429954678422975
8.599999999999999E-6      0.411444281735221
8.7E-6                    0.3936208445545849
8.8E-6                    0.37682976178117183
8.9E-6                    0.36041654864273237
9.0E-6                    0.34507176685051444
9.1E-6                    0.33016976074120585
9.2E-6                    0.3159193104203448
9.299999999999999E-6      0.30240753791787683
9.4E-6                    0.2892101365006741
9.499999999999999E-6      0.27692713270534747
9.6E-6                    0.2649274166214023
9.7E-6                    0.25356307651206256
9.8E-6                    0.24266727758902684
9.9E-6                    0.23212116591898974
9.999999999999999E-6      0.2221403479116366
1.01E-5                   0.21260435665820043
1.0199999999999999E-5     0.20344855985370394
1.03E-5                   0.1946513362898261
1.0399999999999999E-5     0.18618638062920295
1.05E-5                   0.1780280689695032
1.06E-5                   0.17027916464708226
1.07E-5                   0.16294103775483754
1.08E-5                   0.15592960969720462
1.0899999999999999E-5     0.14922676181068142
1.1E-5                    0.14286883090097346
1.1099999999999999E-5     0.13665807170929292
1.12E-5                   0.13082472078269014
1.13E-5                   0.12519869347608947
1.14E-5                   0.11975578768532112
1.15E-5                   0.11465938238716848
1.1599999999999999E-5     0.10970411810681174
1.17E-5                   0.1049761796736753
1.1799999999999999E-5     0.1004856580158119
1.19E-5                   0.0961214000448563
1.2E-5                    0.09201276626198508
1.21E-5                   0.08805760811214537
1.22E-5                   0.084225703627999
1.2299999999999999E-5     0.08064422622338643
1.24E-5                   0.07716122022924587
1.2499999999999999E-5     0.07383168417987329
1.26E-5                   0.07075358969354166
1.2699999999999999E-5     0.06775112219333378
1.28E-5                   0.06474865473238856
1.29E-5                   0.061974060594893646
1.3E-5                    0.05936568872170593
1.31E-5                   0.0567573168652299
1.3199999999999999E-5     0.0542812976532246
1.33E-5                   0.05201433698850149
1.3399999999999999E-5     0.04974737633655713
1.35E-5                   0.04753912213852428
1.3599999999999999E-5     0.04556999971519371
1.37E-5                   0.043600877301778376
1.38E-5                   0.04163413092024299
1.3899999999999999E-5     0.0400275636077304
1.4E-5                    0.038420996300169714
1.4099999999999999E-5     0.03681442899781195
1.42E-5                   0.03520786170090806
1.4299999999999999E-5     0.03360129440970907
1.44E-5                   0.03199472712446591
1.45E-5                   0.03063562277099019
1.4599999999999999E-5     0.0294247153216905
1.47E-5                   0.028213807873372247
1.4799999999999999E-5     0.027002900426141754
1.49E-5                   0.025791992980105247
1.4999999999999999E-5     0.024581085535369075
1.51E-5                   0.023442985271841136
1.52E-5                   0.02253006032545418
1.53E-5                   0.0216171353797874
1.5399999999999998E-5     0.020704210434886777
1.55E-5                   0.019791285490798272
1.56E-5                   0.018878360547567936
1.57E-5                   0.017965435605241734
1.5799999999999998E-5     0.017246501788028328
1.59E-5                   0.016558305490620682
1.6E-5                    0.015870109193811165
1.61E-5                   0.015181912897619311
1.62E-5                   0.014493716602064655
1.63E-5                   0.013805520307166818
1.64E-5                   0.013199002456106924
1.6499999999999998E-5     0.01268022346159794
1.66E-5                   0.012161444466976165
1.67E-5                   0.011642665472250038
1.68E-5                   0.011123886477427956
1.69E-5                   0.01060510748251831
1.7E-5                    0.010103519400468382
1.71E-5                   0.009754940642411598
1.7199999999999998E-5     0.009406361884616833
1.73E-5                   0.009057783127086622
1.74E-5                   0.008709204369823543
1.75E-5                   0.008360625612830136
1.76E-5                   0.008012046856108939
1.77E-5                   0.007663468099662526
1.78E-5                   0.007314889343493438
1.7899999999999998E-5     0.0069663105876042256
1.8E-5                    0.0066177318319974275
1.81E-5                   0.006269153076675619
1.82E-5                   0.0059205743216413425
1.8299999999999998E-5     0.005623802525454947
1.84E-5                   0.005428143980856434
1.85E-5                   0.005232485436150599
1.8599999999999998E-5     0.005036826891337887
1.87E-5                   0.004841168346418737
1.88E-5                   0.004645509801393613
1.89E-5                   0.00444985125626296
1.8999999999999998E-5     0.004254192711027226
1.91E-5                   0.0040585341656868565
1.92E-5                   0.003862875620242312
1.9299999999999998E-5     0.0036672170746940387
1.94E-5                   0.003471558529042477
1.95E-5                   0.0032758999832880912
1.96E-5                   0.0031297672168449408
1.9699999999999998E-5     0.003020006751298883
1.98E-5                   0.002910246285799384
1.99E-5                   0.0028004858203465313
1.9999999999999998E-5     0.0026907253549404006
2.01E-5                   0.002580964889581068
2.02E-5                   0.0024712044242686214
2.03E-5                   0.0023614439590031373
2.0399999999999998E-5     0.002251683493784694
2.05E-5                   0.00214192302861337
2.06E-5                   0.0020321625634892506
2.07E-5                   0.0019224020984124131
2.0799999999999997E-5     0.0018126416333829366
2.09E-5                   0.0017420712534240179
2.1E-5                    0.0016804354798497594
2.1099999999999998E-5     0.0016187997062598765
2.12E-5                   0.0015571639326543809
2.13E-5                   0.001495528159033291
2.14E-5                   0.0014338923853966185
2.1499999999999997E-5     0.0013722566117443772
2.16E-5                   0.00131062083807658
2.17E-5                   0.0012489850643932438
2.1799999999999998E-5     0.0011873492906943808
2.19E-5                   0.0011257135169800035
2.2E-5                    0.0010640777432501295
2.21E-5                   0.001003852917124558
2.2199999999999998E-5     9.692857599487921E-4
2.23E-5                   9.347186027793695E-4
2.24E-5                   9.00151445616295E-4
2.2499999999999998E-5     8.655842884595699E-4
2.26E-5                   8.310171313091954E-4
2.27E-5                   7.964499741651763E-4
2.28E-5                   7.618828170275142E-4
2.2899999999999998E-5     7.273156598962115E-4
2.3E-5                    6.927485027712696E-4
2.31E-5                   6.581813456526932E-4
2.3199999999999998E-5     6.23614188540484E-4
2.33E-5                   5.890470314346429E-4
2.34E-5                   5.598708836775317E-4
2.35E-5                   5.438995023314605E-4
2.3599999999999998E-5     5.279281209847468E-4
2.37E-5                   5.119567396373907E-4
2.38E-5                   4.959853582893932E-4
2.3899999999999998E-5     4.80013976940754E-4
2.4E-5                    4.6404259559147296E-4
2.41E-5                   4.4807121424155145E-4
2.42E-5                   4.320998328909891E-4
2.4299999999999998E-5     4.16128451539786E-4
2.44E-5                   4.0015707018794215E-4
2.45E-5                   3.841856888354587E-4
2.4599999999999998E-5     3.6821430748233534E-4
2.4699999999999997E-5     3.522429261285724E-4
2.48E-5                   3.362715447741694E-4
2.49E-5                   3.203001634191278E-4
2.4999999999999998E-5     3.0432878206344745E-4
2.51E-5                   2.8835740070712784E-4
2.52E-5                   2.723860193501703E-4
2.53E-5                   2.5641463799257457E-4
2.5399999999999997E-5     2.4044325663434094E-4
2.55E-5                   2.2447187527546903E-4
2.56E-5                   2.0850049391596024E-4
2.5699999999999998E-5     1.9252911255581426E-4
2.58E-5                   1.7655773119503072E-4
2.59E-5                   1.605863498336111E-4
2.6E-5                    1.5343993303990042E-4
2.6099999999999997E-5     1.4899743847850426E-4
2.62E-5                   1.445549439172005E-4
2.63E-5                   1.401124493559895E-4
2.6399999999999998E-5     1.356699547948712E-4
2.65E-5                   1.312274602338453E-4
2.66E-5                   1.267849656729122E-4
2.67E-5                   1.223424711120717E-4
2.6799999999999998E-5     1.1789997655132386E-4
2.69E-5                   1.1345748199066852E-4
2.7E-5                    1.0901498743010601E-4
2.7099999999999998E-5     1.0457249286963611E-4
2.7199999999999997E-5     1.001299983092589E-4
2.73E-5                   9.56875037489742E-5
2.74E-5                   9.124500918878231E-5
2.7499999999999998E-5     8.680251462868312E-5
2.76E-5                   8.236002006867643E-5
2.77E-5                   7.791752550876261E-5
2.7799999999999998E-5     7.347503094894147E-5
2.7899999999999997E-5     6.903253638921305E-5
2.8E-5                    6.459004182957716E-5
2.81E-5                   6.014754727003411E-5
2.8199999999999998E-5     5.570505271058381E-5
2.83E-5                   5.126255815122608E-5
2.84E-5                   4.6820063591961214E-5
2.8499999999999998E-5     4.315280997779651E-5
2.8599999999999997E-5     4.192673775310453E-5
2.87E-5                   4.0700665528402143E-5
2.88E-5                   3.947459330368942E-5
2.8899999999999998E-5     3.824852107896631E-5
2.9E-5                    3.7022448854232786E-5
2.91E-5                   3.579637662948894E-5
2.9199999999999998E-5     3.457030440473471E-5
2.9299999999999997E-5     3.3344232179970106E-5
2.94E-5                   3.21181599551951E-5
2.95E-5                   3.089208773040974E-5
2.9599999999999998E-5     2.9666015505614008E-5
2.97E-5                   2.8439943280807864E-5
2.98E-5                   2.7213871055991393E-5
2.99E-5                   2.598779883116454E-5
2.9999999999999997E-5     2.4761726606327317E-5
3.01E-5                   2.3535654381479675E-5
3.02E-5                   2.2309582156621706E-5
3.0299999999999998E-5     2.1083509931753356E-5
3.04E-5                   1.9857437706874594E-5
3.05E-5                   1.86313654819855E-5
3.06E-5                   1.740529325708603E-5
3.07E-5                   1.617922103217615E-5
3.0799999999999996E-5     1.4953148807255976E-5
3.09E-5                   1.3727076582325345E-5
3.1E-5                    1.250100435738434E-5
3.11E-5                   1.1905078566063949E-5
3.12E-5                   1.1558379099547005E-5
3.13E-5                   1.1211679633030462E-5
3.14E-5                   1.0864980166514343E-5
3.15E-5                   1.0518280699998601E-5
3.1599999999999996E-5     1.0171581233483284E-5
3.17E-5                   9.824881766968347E-6
3.18E-5                   9.478182300453809E-6
3.1899999999999996E-5     9.131482833939695E-6
3.2E-5                    8.784783367425958E-6
3.21E-5                   8.438083900912623E-6
3.22E-5                   8.091384434399713E-6
3.23E-5                   7.74468496788718E-6
3.24E-5                   7.397985501375046E-6
3.25E-5                   7.05128603486334E-6
3.26E-5                   6.70458656835201E-6
3.2699999999999995E-5     6.357887101841104E-6
3.28E-5                   6.011187635330576E-6
3.29E-5                   5.66448816882045E-6
3.2999999999999996E-5     5.317788702310747E-6
3.31E-5                   4.971089235801422E-6
3.32E-5                   4.624389769292496E-6
3.3299999999999996E-5     4.277690302783998E-6
3.34E-5                   3.930990836275876E-6
3.35E-5                   3.584291369768155E-6
3.36E-5                   3.291336354556362E-6
3.37E-5                   3.224342252863153E-6
3.38E-5                   3.1573481511699856E-6
3.39E-5                   3.090354049476863E-6
3.4E-5                    3.0233599477837767E-6
3.4099999999999995E-5     2.956365846090736E-6
3.42E-5                   2.889371744397732E-6
3.43E-5                   2.82237764270477E-6
3.4399999999999996E-5     2.755383541011851E-6
3.45E-5                   2.6883894393189705E-6
3.46E-5                   2.6213953376261305E-6
3.4699999999999996E-5     2.5544012359333363E-6
3.48E-5                   2.4874071342405776E-6
3.49E-5                   2.42041303254786E-6
3.5E-5                    2.3534189308551882E-6
3.51E-5                   2.2864248291625532E-6
3.52E-5                   2.219430727469959E-6
3.53E-5                   2.1524366257774103E-6
3.54E-5                   2.0854425240848978E-6
3.5499999999999996E-5     2.018448422392431E-6
3.56E-5                   1.9514543207000005E-6
3.57E-5                   1.8844602190076107E-6
3.5799999999999996E-5     1.8174661173152671E-6
3.59E-5                   1.7504720156229595E-6
3.6E-5                    1.683477913930693E-6
3.6099999999999997E-5     1.616483812238472E-6
3.62E-5                   1.5494897105462874E-6
3.63E-5                   1.4824956088541433E-6
3.64E-5                   1.4155015071620456E-6
3.65E-5                   1.3485074054699836E-6
3.6599999999999995E-5     1.2815133037779676E-6
3.67E-5                   1.2145192020859876E-6
3.68E-5                   1.1475251003940493E-6
3.6899999999999996E-5     1.0805309987021557E-6
3.7E-5                    1.013536897010299E-6
3.71E-5                   9.465427953184834E-7
3.7199999999999996E-5     8.795486936267129E-7
3.73E-5                   8.125545919349792E-7
3.74E-5                   7.455604902432859E-7
3.75E-5                   6.785663885516388E-7
3.76E-5                   6.115722868600276E-7
3.77E-5                   5.445781851684577E-7
3.78E-5                   4.775840834769332E-7
3.79E-5                   4.105899817854451E-7
3.7999999999999995E-5     3.435958800940025E-7
3.81E-5                   2.7660177840259647E-7
3.82E-5                   2.0960767671123125E-7
3.8299999999999996E-5     1.4261357501991166E-7
3.84E-5                   7.561947332862849E-8
3.85E-5                   8.62537163738624E-9
3.8599999999999996E-5     -5.8368730053810446E-8
3.87E-5                   -1.156395544674672E-7
3.88E-5                   -1.1476564802845422E-7
3.89E-5                   -1.1389174158944072E-7
3.9E-5                    -1.1301783515042659E-7
3.9099999999999995E-5     -1.1214392871141193E-7
3.92E-5                   -1.1127002227239664E-7
3.93E-5                   -1.103961158333808E-7
3.9399999999999995E-5     -1.0952220939436442E-7
3.95E-5                   -1.0864830295534742E-7
3.96E-5                   -1.0777439651632986E-7
3.9699999999999996E-5     -1.0690049007731177E-7
3.98E-5                   -1.0602658363829303E-7
3.99E-5                   -1.0515267719927372E-7
3.9999999999999996E-5     -1.0427877076025391E-7
4.01E-5                   -1.0340486432123346E-7
4.02E-5                   -1.0253095788221246E-7
4.03E-5                   -1.0165705144319093E-7
4.04E-5                   -1.0078314500416877E-7
4.0499999999999995E-5     -9.990923856514607E-8
4.06E-5                   -9.903533212612278E-8
4.07E-5                   -9.816142568709888E-8
4.0799999999999996E-5     -9.728751924807449E-8
4.09E-5                   -9.641361280904948E-8
4.1E-5                    -9.553970637002387E-8
4.1099999999999996E-5     -9.466579993099774E-8
4.12E-5                   -9.3791893491971E-8
4.13E-5                   -9.291798705294368E-8
4.14E-5                   -9.204408061391586E-8
4.15E-5                   -9.117017417488737E-8
4.1599999999999995E-5     -9.02962677358584E-8
4.17E-5                   -8.942236129682878E-8
4.18E-5                   -8.854845485779859E-8
4.1899999999999995E-5     -8.76745484187679E-8
4.2E-5                    -8.680064197973656E-8
4.21E-5                   -8.592673554070464E-8
4.2199999999999996E-5     -8.505282910167223E-8
4.23E-5                   -8.417892266263918E-8
4.24E-5                   -8.330501622360554E-8
4.2499999999999996E-5     -8.243110978457142E-8
4.26E-5                   -8.155720334553664E-8
4.27E-5                   -8.068329690650129E-8
4.28E-5                   -7.980939046746542E-8
4.29E-5                   -7.893548402842893E-8
4.2999999999999995E-5     -7.806157758939193E-8
4.31E-5                   -7.718767115035429E-8
4.32E-5                   -7.631376471131608E-8
4.3299999999999995E-5     -7.543985827227736E-8
4.34E-5                   -7.4565951833238E-8
4.35E-5                   -7.369204539419807E-8
4.3599999999999996E-5     -7.281813895515762E-8
4.37E-5                   -7.194423251611654E-8
4.38E-5                   -7.09255570042254E-8
4.3899999999999996E-5     -6.851788921831177E-8
4.4E-5                    -6.61102214323979E-8
4.41E-5                   -6.370255364648397E-8
4.42E-5                   -6.129488586057015E-8
4.43E-5                   -5.888721807465607E-8
4.4399999999999995E-5     -5.6479550288742106E-8
4.45E-5                   -5.40718825028279E-8
4.46E-5                   -5.166421471691364E-8
4.4699999999999996E-5     -4.925654693099945E-8
4.48E-5                   -4.6848879145085034E-8
4.49E-5                   -4.4441211359170575E-8
4.4999999999999996E-5     -4.203354357325619E-8
4.51E-5                   -3.962587578734159E-8
4.52E-5                   -3.72182080014269E-8
4.5299999999999997E-5     -3.481054021551231E-8
4.54E-5                   -3.240287242959751E-8
4.5499999999999995E-5     -2.9995204643682793E-8
4.56E-5                   -2.7587536857767842E-8
4.57E-5                   -2.5179869071852828E-8
4.5799999999999995E-5     -2.2772201285937913E-8
4.59E-5                   -2.036453350002276E-8
4.6E-5                    -1.7956865714107544E-8
4.6099999999999996E-5     -1.554919792819241E-8
4.62E-5                   -1.3141530142277056E-8
4.63E-5                   -1.0733862356361635E-8
4.6399999999999996E-5     -8.32619457044631E-9
4.65E-5                   -5.9185267845307494E-9
4.66E-5                   -3.5108589986151227E-9
4.67E-5                   -1.1031912126995924E-9
4.68E-5                   1.3044765732161655E-9
4.6899999999999995E-5     3.7121443591318276E-9
4.7E-5                    6.119812145047724E-9
4.71E-5                   8.527479930963696E-9
4.7199999999999995E-5     1.0935147716879562E-8
4.73E-5                   1.3342815502795662E-8
4.74E-5                   1.5750483288711826E-8
4.7499999999999996E-5     1.8158151074627902E-8
4.76E-5                   2.0565818860544197E-8
4.77E-5                   2.2973486646460574E-8
4.7799999999999996E-5     2.5381154432376852E-8
4.79E-5                   2.7788822218293362E-8
4.8E-5                    3.019649000420993E-8
4.81E-5                   3.260415779012642E-8
4.82E-5                   3.5011825576043116E-8
4.8299999999999995E-5     3.741949336195974E-8
4.84E-5                   3.9827161147876585E-8
4.85E-5                   4.22348289337935E-8
4.8599999999999995E-5     4.464249671971031E-8
4.87E-5                   4.705016450562736E-8
4.88E-5                   4.9457832291544483E-8
4.8899999999999996E-5     5.1682528614664555E-8
4.9E-5                    5.0069646895341814E-8
4.91E-5                   4.845676517601908E-8
4.9199999999999997E-5     4.6843883456696446E-8
4.93E-5                   4.523100173737373E-8
4.9399999999999995E-5     4.361812001805111E-8
4.95E-5                   4.20052382987284E-8
4.96E-5                   4.0392356579405684E-8
4.9699999999999995E-5     3.877947486008309E-8
4.98E-5                   3.7166593140760396E-8
4.99E-5                   3.5553711421437695E-8
4.9999999999999996E-5     3.394082970211512E-8
5.01E-5                   3.2327947982792446E-8
5.02E-5                   3.0715066263469766E-8
5.0299999999999996E-5     2.9102184544147217E-8
5.04E-5                   2.748930282482454E-8
5.05E-5                   2.5876421105501892E-8
5.06E-5                   2.426353938617935E-8
5.07E-5                   2.2650657666856706E-8
5.0799999999999995E-5     2.1037775947534168E-8
5.09E-5                   1.942489422821153E-8
5.1E-5                    1.781201250888891E-8
5.1099999999999995E-5     1.6199130789566387E-8
5.12E-5                   1.458624907024378E-8
5.13E-5                   1.2973367350921165E-8
5.1399999999999996E-5     1.1360485631598673E-8
5.15E-5                   9.747603912276067E-9
5.16E-5                   8.134722192953474E-9
5.1699999999999996E-5     6.5218404736309975E-9
5.18E-5                   4.908958754308419E-9
5.1899999999999994E-5     3.2960770349859423E-9
5.2E-5                    1.6831953156633737E-9
5.21E-5                   7.03135963408099E-11
5.2199999999999995E-5     -1.5425681229816398E-9
5.23E-5                   -3.1554498423041943E-9
5.24E-5                   -4.768331561626742E-9
5.2499999999999995E-5     -6.3812132809491706E-9
5.26E-5                   -7.994095000271715E-9
5.27E-5                   -9.606976719594243E-9
5.2799999999999996E-5     -1.1219858438916658E-8
5.29E-5                   -1.2832740158239174E-8
5.3E-5                    -1.4445621877561688E-8
5.3099999999999996E-5     -1.6058503596884086E-8
5.32E-5                   -1.7671385316206594E-8
5.3299999999999995E-5     -1.9284267035528977E-8
5.34E-5                   -2.0897148754851466E-8
5.35E-5                   -2.251003047417395E-8
5.3599999999999995E-5     -2.412291219349632E-8
5.37E-5                   -2.5735793912818793E-8
5.38E-5                   -2.7348675632141252E-8
5.3899999999999996E-5     -2.8961557351463612E-8
5.4E-5                    -3.057443907078606E-8
5.41E-5                   -2.9901094152694624E-8
5.4199999999999996E-5     -2.9220018303329806E-8
5.43E-5                   -2.8538942453964925E-8
5.4399999999999994E-5     -2.7857866604600085E-8
5.4499999999999997E-5     -2.7176790755235194E-8
5.46E-5                   -2.6495714905870297E-8
5.4699999999999995E-5     -2.581463905650544E-8
5.48E-5                   -2.513356320714052E-8
5.49E-5                   -2.4452487357775592E-8
5.4999999999999995E-5     -2.3771411508410715E-8
5.51E-5                   -2.309033565904578E-8
5.52E-5                   -2.2409259809680835E-8
5.5299999999999996E-5     -2.1728183960315934E-8
5.54E-5                   -2.1047108110950974E-8
5.55E-5                   -2.036603226158601E-8
5.5599999999999996E-5     -1.9684956412221084E-8
5.57E-5                   -1.9003880562856104E-8
5.5799999999999994E-5     -1.832280471349116E-8
5.59E-5                   -1.764172886412617E-8
5.6E-5                    -1.6960653014761168E-8
5.6099999999999995E-5     -1.6279577165396204E-8
5.62E-5                   -1.5598501316031188E-8
5.63E-5                   -1.4917425466666162E-8
5.6399999999999995E-5     -1.4236349617301182E-8
5.65E-5                   -1.3555273767936144E-8
5.66E-5                   -1.28741979185711E-8
5.6699999999999996E-5     -1.2193122069206092E-8
5.68E-5                   -1.1512046219841036E-8
5.69E-5                   -1.0830970370475968E-8
5.6999999999999996E-5     -1.0149894521110939E-8
5.71E-5                   -9.468818671745858E-9
5.7199999999999994E-5     -8.787742822380815E-9
5.73E-5                   -8.10666697301572E-9
5.74E-5                   -7.4255911236506175E-9
5.7499999999999995E-5     -6.7445152742855525E-9
5.76E-5                   -6.063439424920434E-9
5.77E-5                   -5.382363575555311E-9
5.7799999999999995E-5     -4.701287726190223E-9
5.79E-5                   -4.020211876825086E-9
5.8E-5                    -3.3391360274599397E-9
5.8099999999999996E-5     -2.6580601780948316E-9
5.82E-5                   -1.9769843287296698E-9
5.8299999999999994E-5     -1.2959084793645451E-9
5.8399999999999997E-5     -6.148326299993717E-10
5.85E-5                   6.62432193658117E-11
5.8599999999999995E-5     7.473190687309558E-10
5.87E-5                   1.4283949180961523E-9
5.88E-5                   2.109470767461365E-9
5.8899999999999995E-5     2.790546616826532E-9
5.9E-5                    3.4716224661917507E-9
5.91E-5                   4.152698315556972E-9
5.9199999999999996E-5     4.83377416492216E-9
5.93E-5                   5.5148500142874004E-9
5.94E-5                   6.195925863652649E-9
5.9499999999999996E-5     6.877001713017858E-9
5.96E-5                   7.558077562383122E-9
5.9699999999999994E-5     8.239153411748345E-9
5.98E-5                   8.920229261113624E-9
5.99E-5                   9.601305110478915E-9
5.9999999999999995E-5     1.0282380959844156E-8
6.01E-5                   1.096345680920946E-8
6.02E-5                   1.1644532658574764E-8
6.0299999999999995E-5     1.2325608507940034E-8
6.04E-5                   1.3006684357305353E-8
6.05E-5                   1.3687760206670683E-8
6.0599999999999996E-5     1.4368836056035971E-8
6.07E-5                   1.504991190540131E-8
6.08E-5                   1.5730987754766664E-8
6.0899999999999996E-5     1.6412063604131978E-8
6.1E-5                    1.7093139453497345E-8
6.11E-5                   1.777421530286267E-8
6.12E-5                   1.845529115222805E-8
6.13E-5                   1.9136367001593432E-8
6.14E-5                   1.981744285095883E-8
6.149999999999999E-5      2.049851870032414E-8
6.159999999999999E-5      2.1179594549689547E-8
6.17E-5                   2.1860670399054957E-8
6.18E-5                   2.2541746248420386E-8
6.19E-5                   2.3222822097785816E-8
6.2E-5                    2.390389794715125E-8
6.209999999999999E-5      2.45849737965166E-8
6.22E-5                   2.5266049645882056E-8
6.23E-5                   2.5947125495247513E-8
6.24E-5                   2.6628201344612975E-8
6.25E-5                   2.7309277193978455E-8
6.26E-5                   2.7990353043343934E-8
6.269999999999999E-5      2.867142889270933E-8
6.28E-5                   2.9352504742074827E-8
6.29E-5                   3.003358059144033E-8
6.3E-5                    3.071465644080584E-8