% Model:              20230225_JW_4_05.mph
% Version:            COMSOL 5.6.0.401
% Date:               Feb 25 2023, 20:16
% Dimension:          1
% Nodes:              1501
% Expressions:        1
% Description:        点图
% X                       Height
0                         23.00793622129949
1.0E-7                    22.996915506937942
2.0E-7                    22.965780495314483
3.0E-7                    22.925270366248604
4.0E-7                    22.88623338016081
5.0E-7                    22.846860711926706
6.0E-7                    22.80827919317134
7.0E-7                    22.771205194758
8.0E-7                    22.735256332608277
9.0E-7                    22.69840252359588
1.0E-6                    22.658563839931777
1.1E-6                    22.615682589495815
1.2E-6                    22.572816181814336
1.2999999999999998E-6     22.529307313179373
1.4E-6                    22.483351971189332
1.5E-6                    22.437514033149462
1.6E-6                    22.390485039888517
1.6999999999999998E-6     22.342876506834315
1.8E-6                    22.294323248562485
1.9E-6                    22.245476232013505
2.0E-6                    22.19595673374152
2.1E-6                    22.146080244527028
2.2E-6                    22.095626409142938
2.3E-6                    22.044980068553876
2.4E-6                    21.993894519964922
2.4999999999999998E-6     21.94252968778426
2.5999999999999997E-6     21.891022421870257
2.7E-6                    21.839124151069694
2.8E-6                    21.787079348312165
2.8999999999999998E-6     21.735012057606554
3.0E-6                    21.68259715896892
3.1E-6                    21.63014541891555
3.2E-6                    21.57751849931812
3.2999999999999997E-6     21.524830717899707
3.3999999999999996E-6     21.472005095134087
3.5E-6                    21.41915605527487
3.6E-6                    21.36627694392094
3.6999999999999997E-6     21.313287569990646
3.8E-6                    21.26021588274924
3.9E-6                    21.207177629741107
4.0E-6                    21.15415306042123
4.1E-6                    21.101039228318108
4.2E-6                    21.04790870013925
4.2999999999999995E-6     20.994771980086103
4.4E-6                    20.94165123393977
4.5E-6                    20.888679145122623
4.6E-6                    20.835707498106725
4.7E-6                    20.78273630109065
4.8E-6                    20.729724057722546
4.9E-6                    20.67664030647023
4.9999999999999996E-6     20.62355633801263
5.0999999999999995E-6     20.570472162692308
5.199999999999999E-6      20.51748872820008
5.3E-6                    20.46456419726024
5.4E-6                    20.411640011379905
5.5E-6                    20.358716177964418
5.6E-6                    20.305787663304923
5.7E-6                    20.252858346678906
5.7999999999999995E-6     20.199928780498244
5.899999999999999E-6      20.147078527456404
6.0E-6                    20.09463752048204
6.1E-6                    20.042196714382293
6.2E-6                    19.98975611534083
6.3E-6                    19.93720148946496
6.4E-6                    19.88449438321083
6.5E-6                    19.831787545204403
6.5999999999999995E-6     19.779080984890708
6.699999999999999E-6      19.726898239206932
6.799999999999999E-6      19.674946801891732
6.9E-6                    19.622994686095538
7.0E-6                    19.571041897264884
7.1E-6                    19.518727129459386
7.2E-6                    19.466399096210026
7.2999999999999996E-6     19.414073614917523
7.3999999999999995E-6     19.361948742929282
7.499999999999999E-6      19.3105125107852
7.6E-6                    19.259074842570183
7.699999999999999E-6      19.207635743933423
7.8E-6                    19.15667914153491
7.899999999999999E-6      19.106230807835747
8.0E-6                    19.05578518800223
8.1E-6                    19.005342268214672
8.2E-6                    18.953409922368508
8.3E-6                    18.90098933608354
8.4E-6                    18.848567645605236
8.5E-6                    18.79617102313861
8.599999999999999E-6      18.745133671084105
8.7E-6                    18.694096565953405
8.8E-6                    18.643059707513586
8.9E-6                    18.592140332377596
9.0E-6                    18.541282200701737
9.1E-6                    18.490424241592823
9.2E-6                    18.439694262049375
9.299999999999999E-6      18.389038437612438
9.4E-6                    18.338382372030768
9.499999999999999E-6      18.288181239385025
9.6E-6                    18.238025655190217
9.7E-6                    18.18782627548762
9.8E-6                    18.13743493689454
9.9E-6                    18.087043453901185
9.999999999999999E-6      18.036924296030996
1.01E-5                   17.987119660763646
1.0199999999999999E-5     17.93731340883084
1.03E-5                   17.887385519098356
1.0399999999999999E-5     17.83745766232125
1.05E-5                   17.787659743328174
1.06E-5                   17.737892630762058
1.07E-5                   17.688316384480345
1.08E-5                   17.63886584304405
1.0899999999999999E-5     17.58948689501677
1.1E-5                    17.54021632625443
1.1099999999999999E-5     17.490969713978888
1.12E-5                   17.44182393263914
1.13E-5                   17.392678249450125
1.14E-5                   17.34376881856925
1.15E-5                   17.29486250206549
1.1599999999999999E-5     17.2461239876349
1.17E-5                   17.197432469629238
1.1799999999999999E-5     17.148808270826123
1.19E-5                   17.10023358234295
1.2E-5                    17.05176432168106
1.21E-5                   17.00347406834314
1.22E-5                   16.955208432429096
1.2299999999999999E-5     16.907066983103693
1.24E-5                   16.85892554952602
1.2499999999999999E-5     16.810986739811824
1.26E-5                   16.76305643180148
1.2699999999999999E-5     16.715293325926027
1.28E-5                   16.667584614614793
1.29E-5                   16.619978809236542
1.3E-5                    16.57245752567311
1.31E-5                   16.525003616584915
1.3199999999999999E-5     16.477678281372647
1.33E-5                   16.43038408466794
1.3399999999999999E-5     16.38328375809856
1.35E-5                   16.336183452644388
1.3599999999999999E-5     16.289264117295513
1.37E-5                   16.242357810999025
1.38E-5                   16.195603044947113
1.3899999999999999E-5     16.148905019577445
1.4E-5                    16.10232420410815
1.4099999999999999E-5     16.05585065121289
1.42E-5                   16.009438843705915
1.4299999999999999E-5     15.963160144398389
1.44E-5                   15.916905964227224
1.45E-5                   15.870847230260154
1.4599999999999999E-5     15.824788514510816
1.47E-5                   15.779055463830638
1.4799999999999999E-5     15.733356202950057
1.49E-5                   15.687656960359536
1.4999999999999999E-5     15.641957739830472
1.51E-5                   15.59646623829813
1.52E-5                   15.551186422790874
1.53E-5                   15.505906619837795
1.5399999999999998E-5     15.460626833079486
1.55E-5                   15.415382913325303
1.56E-5                   15.370527474389464
1.57E-5                   15.325672049965245
1.5799999999999998E-5     15.280816643544194
1.59E-5                   15.235961258644936
1.6E-5                    15.191406472173083
1.61E-5                   15.146997268660543
1.62E-5                   15.102588074690571
1.63E-5                   15.058178893634143
1.64E-5                   15.013886489732519
1.6499999999999998E-5     14.969921405351934
1.66E-5                   14.925956338529893
1.67E-5                   14.881991292525035
1.68E-5                   14.838026270619471
1.69E-5                   14.794433218931054
1.7E-5                    14.75090469829237
1.71E-5                   14.70737618390534
1.7199999999999998E-5     14.66384767887734
1.73E-5                   14.620519281307132
1.74E-5                   14.577444132030214
1.75E-5                   14.534369000309919
1.76E-5                   14.491293889192061
1.77E-5                   14.448232005519731
1.78E-5                   14.405588182435375
1.7899999999999998E-5     14.362944369681438
1.8E-5                    14.320300570109742
1.81E-5                   14.277656786590066
1.82E-5                   14.23530546461679
1.8299999999999998E-5     14.193133492531299
1.84E-5                   14.150961508938686
1.85E-5                   14.108789516648171
1.8599999999999998E-5     14.066698825987666
1.87E-5                   14.024915776917936
1.88E-5                   13.983132816752757
1.89E-5                   13.941349948208844
1.8999999999999998E-5     13.899567174018085
1.91E-5                   13.858233734148282
1.92E-5                   13.817013647706398
1.9299999999999998E-5     13.775793382478307
1.94E-5                   13.734572940905363
1.95E-5                   13.693624127096847
1.96E-5                   13.653104926017319
1.9699999999999998E-5     13.612585855483191
1.98E-5                   13.572066917876144
1.99E-5                   13.531548115590653
1.9999999999999998E-5     13.491029451033882
2.01E-5                   13.450510926625512
2.02E-5                   13.409992544797655
2.03E-5                   13.369474307994679
2.0399999999999998E-5     13.329414043431479
2.05E-5                   13.289704810301709
2.06E-5                   13.24999547213579
2.07E-5                   13.210286031145928
2.0799999999999997E-5     13.170576489555938
2.09E-5                   13.130866849601182
2.1E-5                    13.091157113528471
2.1099999999999998E-5     13.051447283595987
2.12E-5                   13.011737362073195
2.13E-5                   12.972526027693874
2.14E-5                   12.933486025007632
2.1499999999999997E-5     12.894446190557929
2.16E-5                   12.855406526431402
2.17E-5                   12.816367034727294
2.1799999999999998E-5     12.777327717557327
2.19E-5                   12.73828857704553
2.2E-5                    12.69924961532816
2.21E-5                   12.66021083455351
2.2199999999999998E-5     12.622256747221787
2.23E-5                   12.584393123635694
2.24E-5                   12.546529333937137
2.2499999999999998E-5     12.508665380019071
2.26E-5                   12.470801263780785
2.27E-5                   12.432936987127887
2.28E-5                   12.395072551972218
2.2899999999999998E-5     12.357207960231847
2.3E-5                    12.319466082133086
2.31E-5                   12.282813790419501
2.3199999999999998E-5     12.246161666750428
2.33E-5                   12.209509711897676
2.34E-5                   12.172857926640116
2.35E-5                   12.136206311763646
2.3599999999999998E-5     12.099554868061087
2.37E-5                   12.06290359633216
2.38E-5                   12.026252497383402
2.3899999999999998E-5     11.98918284111532
2.4E-5                    11.951035513976336
2.41E-5                   11.912888353092752
2.42E-5                   11.87474136549547
2.4299999999999998E-5     11.836594558241865
2.44E-5                   11.798447938415213
2.45E-5                   11.76030151312421
2.4599999999999998E-5     11.722155289502398
2.4699999999999997E-5     11.684009274707643
2.48E-5                   11.646693438077397
2.49E-5                   11.610358741149762
2.4999999999999998E-5     11.574023877875497
2.51E-5                   11.537688848324056
2.52E-5                   11.501353652565797
2.53E-5                   11.465018290671962
2.5399999999999997E-5     11.431578539678124
2.55E-5                   11.398619885886742
2.56E-5                   11.365661392269105
2.5699999999999998E-5     11.33231672636998
2.58E-5                   11.297835057345411
2.59E-5                   11.26335353678402
2.6E-5                    11.228009407609818
2.6099999999999997E-5     11.192483931765747
2.62E-5                   11.15887126481165
2.63E-5                   11.126235702899269
2.6399999999999998E-5     11.091646005549393
2.65E-5                   11.057256263767497
2.66E-5                   11.023426164359776
2.67E-5                   10.989679435763282
2.6799999999999998E-5     10.955669669260931
2.69E-5                   10.922228835633495
2.7E-5                    10.88849778420203
2.7099999999999998E-5     10.854898639387606
2.7199999999999997E-5     10.821495740446569
2.73E-5                   10.788206835254156
2.74E-5                   10.754771038699708
2.7499999999999998E-5     10.721614390898937
2.76E-5                   10.68857547039832
2.77E-5                   10.655504083939881
2.7799999999999998E-5     10.622575328845299
2.7899999999999997E-5     10.589747604198703
2.8E-5                    10.556890739623523
2.81E-5                   10.524253011114604
2.8199999999999998E-5     10.491637939320935
2.83E-5                   10.459108844269382
2.84E-5                   10.426696565939306
2.8499999999999998E-5     10.394340498585679
2.8599999999999997E-5     10.362093122431338
2.87E-5                   10.32995024711081
2.88E-5                   10.297912311016828
2.8899999999999998E-5     10.265951701025708
2.9E-5                    10.234093350387427
2.91E-5                   10.202341320542102
2.9199999999999998E-5     10.17063206719985
2.9299999999999997E-5     10.139079170737524
2.94E-5                   10.107571369486212
2.95E-5                   10.076170131891942
2.9599999999999998E-5     10.044858185211156
2.97E-5                   10.013609251729145
2.98E-5                   9.982564023020165
2.99E-5                   9.951547853427774
2.9999999999999997E-5     9.920531689378036
3.01E-5                   9.889651418430832
3.02E-5                   9.858935235913577
3.0299999999999998E-5     9.828219056993108
3.04E-5                   9.797511979693653
3.05E-5                   9.76709091746155
3.06E-5                   9.736669858318553
3.07E-5                   9.706248803186261
3.0799999999999996E-5     9.676012637640422
3.09E-5                   9.645895351564379
3.1E-5                    9.615778069928087
3.11E-5                   9.585715839553599
3.12E-5                   9.555893749472434
3.13E-5                   9.526071661443401
3.14E-5                   9.496249576328731
3.15E-5                   9.466653070386936
3.1599999999999996E-5     9.437126130608354
3.17E-5                   9.407599196450061
3.18E-5                   9.378172799359142
3.1899999999999996E-5     9.348939706662096
3.2E-5                    9.319706614170743
3.21E-5                   9.290473522689245
3.22E-5                   9.261506684397544
3.23E-5                   9.232563017097336
3.24E-5                   9.203619357638884
3.25E-5                   9.174819590901045
3.26E-5                   9.146164985776009
3.2699999999999995E-5     9.117510377901779
3.28E-5                   9.088877536304352
3.29E-5                   9.060510806966313
3.2999999999999996E-5     9.032144088190327
3.31E-5                   9.003777380716555
3.32E-5                   8.9756889588618
3.3299999999999996E-5     8.94774812111884
3.34E-5                   8.919807282563417
3.35E-5                   8.891866443895282
3.36E-5                   8.863925605815686
3.37E-5                   8.835984769027332
3.38E-5                   8.808043934234394
3.39E-5                   8.780553975589449
3.4E-5                    8.753170400540899
3.4099999999999995E-5     8.725786829128632
3.42E-5                   8.698403262004021
3.43E-5                   8.671019699819745
3.4399999999999996E-5     8.64363614322976
3.45E-5                   8.616252592889287
3.46E-5                   8.589392217439565
3.4699999999999996E-5     8.562550954765326
3.48E-5                   8.535709691564112
3.49E-5                   8.508868428453548
3.5E-5                    8.482027166052447
3.51E-5                   8.455185904980793
3.52E-5                   8.428444066694214
3.53E-5                   8.402428512010339
3.54E-5                   8.376412958986926
3.5499999999999996E-5     8.350397408178022
3.56E-5                   8.324381860138674
3.57E-5                   8.298366315424932
3.5799999999999996E-5     8.272350774593837
3.59E-5                   8.246335238203411
3.6E-5                    8.220319706812647
3.6099999999999997E-5     8.194304180981495
3.62E-5                   8.168288661270873
3.63E-5                   8.142273148242625
3.64E-5                   8.116257642459546
3.65E-5                   8.090242144485346
3.6599999999999995E-5     8.06467446762361
3.67E-5                   8.039696262072145
3.68E-5                   8.014718053117058
3.6899999999999996E-5     7.989739841241211
3.7E-5                    7.964761626928287
3.71E-5                   7.939783410662806
3.7199999999999996E-5     7.914805192930112
3.73E-5                   7.889826974216347
3.74E-5                   7.864848755008478
3.75E-5                   7.839870535794261
3.76E-5                   7.81489231706224
3.77E-5                   7.789914099301758
3.78E-5                   7.764935883002926
3.79E-5                   7.739957668656622
3.7999999999999995E-5     7.715723598298809
3.81E-5                   7.691746890137611
3.82E-5                   7.667770183846528
3.8299999999999996E-5     7.643793479854782
3.84E-5                   7.619816778592224
3.85E-5                   7.595840080489373
3.8599999999999996E-5     7.571863385977374
3.87E-5                   7.547886695488003
3.88E-5                   7.523910009453664
3.89E-5                   7.499933328307388
3.9E-5                    7.475956652482809
3.9099999999999995E-5     7.451979982414177
3.92E-5                   7.428003318536339
3.93E-5                   7.404082570886084
3.9399999999999995E-5     7.381134905846267
3.95E-5                   7.358187236796909
3.96E-5                   7.335239564107673
3.9699999999999996E-5     7.31229188814876
3.98E-5                   7.289344209290893
3.99E-5                   7.266396527905315
3.9999999999999996E-5     7.243448844363791
4.01E-5                   7.220501159038594
4.02E-5                   7.197553472302507
4.03E-5                   7.1746057845288185
4.04E-5                   7.151658096091307
4.0499999999999995E-5     7.128710407364259
4.06E-5                   7.105762718722437
4.07E-5                   7.083141197093597
4.0799999999999996E-5     7.061085545569792
4.09E-5                   7.039029896800414
4.1E-5                    7.0169742511130835
4.1099999999999996E-5     6.994918608835829
4.12E-5                   6.972862970297081
4.13E-5                   6.950807335825665
4.14E-5                   6.928751705750809
4.15E-5                   6.906696080402122
4.1599999999999995E-5     6.88464046010961
4.17E-5                   6.862584845203656
4.18E-5                   6.840529236015023
4.1899999999999995E-5     6.81847363287485
4.2E-5                    6.796418036114647
4.21E-5                   6.774954883423503
4.2199999999999996E-5     6.75377444608514
4.23E-5                   6.7325940064015075
4.24E-5                   6.7114135646850945
4.2499999999999996E-5     6.690233121248782
4.26E-5                   6.669052676405826
4.27E-5                   6.647872230469884
4.28E-5                   6.626691783754986
4.29E-5                   6.605511336575539
4.2999999999999995E-5     6.584330889246327
4.31E-5                   6.563150442082501
4.32E-5                   6.541969995399583
4.3299999999999995E-5     6.520789549513464
4.34E-5                   6.499609104740383
4.35E-5                   6.479558606603855
4.3599999999999996E-5     6.45952152756812
4.37E-5                   6.439484446065478
4.38E-5                   6.419447362285753
4.3899999999999996E-5     6.399410276418935
4.4E-5                    6.379373188655171
4.41E-5                   6.3593360991847625
4.42E-5                   6.33929900819818
4.43E-5                   6.319261915886042
4.4399999999999995E-5     6.299224822439127
4.45E-5                   6.279187728048361
4.46E-5                   6.259150632904832
4.4699999999999996E-5     6.239113537199773
4.48E-5                   6.219250054686624
4.49E-5                   6.199792505236062
4.4999999999999996E-5     6.180334962906529
4.51E-5                   6.160877427977961
4.52E-5                   6.141419900730615
4.5299999999999997E-5     6.121962381445051
4.54E-5                   6.102504870402137
4.5499999999999995E-5     6.083047367883043
4.56E-5                   6.063589874169241
4.57E-5                   6.044132389542497
4.5799999999999995E-5     6.024674914284875
4.59E-5                   6.005217448678718
4.6E-5                    5.985759993006665
4.6099999999999996E-5     5.966811694955281
4.62E-5                   5.947873917904298
4.63E-5                   5.928936137641251
4.6399999999999996E-5     5.909998354371742
4.65E-5                   5.891060568301537
4.66E-5                   5.87212277963658
4.67E-5                   5.85318498858299
4.68E-5                   5.83424719534705
4.6899999999999995E-5     5.815309400135213
4.7E-5                    5.796371603154095
4.71E-5                   5.7774338046104825
4.7199999999999995E-5     5.7592451186397104
4.73E-5                   5.74114721940204
4.74E-5                   5.723049321094661
4.7499999999999996E-5     5.704951423892688
4.76E-5                   5.686853527971389
4.77E-5                   5.668755633506179
4.7799999999999996E-5     5.650657740672629
4.79E-5                   5.632559849646449
4.8E-5                    5.6144619606034984
4.81E-5                   5.5964550439034895
4.82E-5                   5.578770808979363
4.8299999999999995E-5     5.56108657564538
4.84E-5                   5.543402344079728
4.85E-5                   5.525718114460724
4.8599999999999995E-5     5.508033886966813
4.87E-5                   5.490349661776562
4.88E-5                   5.472665439068663
4.8899999999999996E-5     5.455157261335964
4.9E-5                    5.43790341810446
4.91E-5                   5.4206495719132635
4.9199999999999997E-5     5.403395722905764
4.93E-5                   5.386141871225459
4.9399999999999995E-5     5.368888017015967
4.95E-5                   5.3516379708139965
4.96E-5                   5.334612295682547
4.9699999999999995E-5     5.317586626448504
4.98E-5                   5.300560963275208
4.99E-5                   5.283535306326091
4.9999999999999996E-5     5.266509655764684
5.01E-5                   5.249656050095046
5.02E-5                   5.232907023028559
5.0299999999999996E-5     5.216157989929148
5.04E-5                   5.199408950931926
5.05E-5                   5.182659906172112
5.06E-5                   5.166096190146079
5.07E-5                   5.149560826721709
5.0799999999999995E-5     5.133025471417067
5.09E-5                   5.116490124372933
5.1E-5                    5.100054665945267
5.1099999999999995E-5     5.083689123839691
5.12E-5                   5.067323574798128
5.13E-5                   5.050958018955088
5.1399999999999996E-5     5.034845243415669
5.15E-5                   5.018822675700322
5.16E-5                   5.002800114355789
5.1699999999999996E-5     4.986777559503042
5.18E-5                   4.9708750433694116
5.1899999999999994E-5     4.954987999033672
5.2E-5                    4.939100950663316
5.21E-5                   4.923220584203534
5.2199999999999995E-5     4.9075268472191675
5.23E-5                   4.891833114050601
5.24E-5                   4.876139384813192
5.2499999999999995E-5     4.860484736486364
5.26E-5                   4.8450041117029725
5.27E-5                   4.8295234841163435
5.2799999999999996E-5     4.814042853837882
5.29E-5                   4.798613492095228
5.3E-5                    4.783287217209945
5.3099999999999996E-5     4.767960946239946
5.32E-5                   4.75263467929513
5.3299999999999995E-5     4.737411678108932
5.34E-5                   4.722300117115242
5.35E-5                   4.707188551819673
5.3599999999999995E-5     4.692076982323858
5.37E-5                   4.677065874054576
5.38E-5                   4.662113840621926
5.3899999999999996E-5     4.6471618139975535
5.4E-5                    4.632209794284707
5.41E-5                   4.617410467038628
5.4199999999999996E-5     4.60265456934713
5.43E-5                   4.587898663517588
5.4399999999999994E-5     4.573142749644551
5.4499999999999997E-5     4.558546163084794
5.46E-5                   4.543962077214085
5.4699999999999995E-5     4.529378003341766
5.48E-5                   4.514806990637391
5.49E-5                   4.500394398744781
5.4999999999999995E-5     4.485981793148415
5.51E-5                   4.471569173939655
5.52E-5                   4.457201169687098
5.5299999999999996E-5     4.4429869908362765
5.54E-5                   4.4287728314192885
5.55E-5                   4.414558691514966
5.5599999999999996E-5     4.400389538833512
5.57E-5                   4.386295748716928
5.5799999999999994E-5     4.372201937685757
5.59E-5                   4.358108105833894
5.6E-5                    4.344151950931894
5.6099999999999995E-5     4.330321670548227
5.62E-5                   4.316491420236193
5.63E-5                   4.302661200050221
5.6399999999999995E-5     4.288846678194677
5.65E-5                   4.275039808335617
5.66E-5                   4.261232906862892
5.6699999999999996E-5     4.247425973881128
5.68E-5                   4.233869787692313
5.69E-5                   4.220368667583624
5.6999999999999996E-5     4.206867585924627
5.71E-5                   4.193371396082708
5.7199999999999994E-5     4.1798840596872395
5.73E-5                   4.166396697361267
5.74E-5                   4.1529605354403545
5.7499999999999995E-5     4.13969162964522
5.76E-5                   4.126422745040116
5.77E-5                   4.113178595463401
5.7799999999999995E-5     4.0999676146296915
5.79E-5                   4.086756619469298
5.8E-5                    4.073681479349072
5.8099999999999996E-5     4.060621419076493
5.82E-5                   4.047594929003167
5.8299999999999994E-5     4.034588482579147
5.8399999999999997E-5     4.021641086340164
5.85E-5                   4.008736567204698
5.8599999999999995E-5     3.995856680456176
5.87E-5                   3.982998404523769
5.88E-5                   3.970201164302513
5.8899999999999995E-5     3.957431260950874
5.9E-5                    3.9447004490938222
5.91E-5                   3.9319772251391663
5.9199999999999996E-5     3.9193460179595014
5.93E-5                   3.906724730781502
5.94E-5                   3.8941538157517424
5.9499999999999996E-5     3.881608245965946
5.96E-5                   3.869115900856526
5.9699999999999994E-5     3.856659369923162
5.98E-5                   3.844241558786778
5.99E-5                   3.831866417673771
5.9999999999999995E-5     3.8195154322746507
6.01E-5                   3.807227385341692
6.02E-5                   3.7949554217524826
6.0299999999999995E-5     3.782747118189946
6.04E-5                   3.770550211771616
6.05E-5                   3.7584193012038902
6.0599999999999996E-5     3.746318663054315
6.07E-5                   3.734299697978911
6.08E-5                   3.722280732930653
6.0899999999999996E-5     3.7102617679616445
6.1E-5                    3.698329659148998
6.11E-5                   3.686458819278483
6.12E-5                   3.674587979704624
6.13E-5                   3.662717140477119
6.14E-5                   3.6509703643380282
6.149999999999999E-5      3.6392370178369715
6.159999999999999E-5      3.6275036714867297
6.17E-5                   3.61580038547532
6.18E-5                   3.6042047534132053
6.19E-5                   3.5926091215499354
6.2E-5                    3.5810134899318977
6.209999999999999E-5      3.569490095097382
6.22E-5                   3.558029679008963
6.23E-5                   3.5465692630815497
6.24E-5                   3.535108847360111
6.25E-5                   3.5237628546714768
6.26E-5                   3.512437024561325
6.269999999999999E-5      3.5011111946404574
6.28E-5                   3.4898073322107694
6.29E-5                   3.4786137218280415
6.3E-5                    3.467420111596197
6.31E-5                   3.456226501557044
6.319999999999999E-5      3.445134176926494
6.33E-5                   3.434150660096698
6.34E-5                   3.4231671433891893
6.35E-5                   3.41218362684346
6.36E-5                   3.401200110499014
6.37E-5                   3.390216594395369
6.379999999999999E-5      3.3792330785720526
6.39E-5                   3.3682795054626347
6.4E-5                    3.357558628847519
6.41E-5                   3.3468377522427
6.42E-5                   3.3361168756848225
6.429999999999999E-5      3.3253959992105417
6.44E-5                   3.314675122856519
6.45E-5                   3.303954246659429
6.46E-5                   3.293233370655955
6.47E-5                   3.2826964541017585
6.48E-5                   3.2722222007369437
6.489999999999999E-5      3.261747947497176
6.5E-5                    3.2512736944166503
6.51E-5                   3.2407994415295724
6.52E-5                   3.2303251888701556
6.53E-5                   3.219850936472624
6.539999999999999E-5      3.2094694184695087
6.549999999999999E-5      3.199240609283919
6.56E-5                   3.1890118000747263
6.57E-5                   3.1787829908737133
6.58E-5                   3.1685541817126683
6.59E-5                   3.1583253726233904
6.599999999999999E-5      3.1480965636376874
6.61E-5                   3.1378700653212226
6.62E-5                   3.127878663570104
6.63E-5                   3.1178872619604032
6.64E-5                   3.1078958605218094
6.65E-5                   3.0979044592840177
6.659999999999999E-5      3.0879130582767336
6.67E-5                   3.077921657529662
6.68E-5                   3.0679302570725215
6.69E-5                   3.0581609578623796