% Model:              20230225_JW_4_05.mph
% Version:            COMSOL 5.6.0.401
% Date:               Feb 25 2023, 20:18
% Dimension:          1
% Nodes:              1501
% Expressions:        1
% Description:        点图
% X                       Height
0                         12.049033652649538
1.0E-7                    12.051613346280625
2.0E-7                    12.063884143439974
3.0E-7                    12.08531721970874
4.0E-7                    12.099554382580067
5.0E-7                    12.10398995649668
6.0E-7                    12.10898074576587
7.0E-7                    12.113940310732776
8.0E-7                    12.115514729277313
9.0E-7                    12.114682363935527
1.0E-6                    12.109528732649178
1.1E-6                    12.104678730812678
1.2E-6                    12.096979743148657
1.2999999999999998E-6     12.085895987099251
1.4E-6                    12.075405014003351
1.5E-6                    12.061245944743243
1.6E-6                    12.046658382581645
1.6999999999999998E-6     12.030180536540708
1.8E-6                    12.012564339628476
1.9E-6                    11.993844325024138
2.0E-6                    11.973532075138651
2.1E-6                    11.952923342604663
2.2E-6                    11.93056734456163
2.3E-6                    11.90777739012339
2.4E-6                    11.884200156978578
2.4999999999999998E-6     11.859735531599368
2.5999999999999997E-6     11.834785299364121
2.7E-6                    11.809117833270458
2.8E-6                    11.782711602559646
2.8999999999999998E-6     11.756207845423424
3.0E-6                    11.728854266071137
3.1E-6                    11.701382335221039
3.2E-6                    11.673345450414933
3.2999999999999997E-6     11.645119237539024
3.3999999999999996E-6     11.616463660847321
3.5E-6                    11.58759746601912
3.6E-6                    11.558462134888975
3.6999999999999997E-6     11.529091259700886
3.8E-6                    11.499544131754162
3.9E-6                    11.469794439635631
4.0E-6                    11.43996008727848
4.1E-6                    11.409868549217698
4.2E-6                    11.379727368178138
4.2999999999999995E-6     11.349454348473015
4.4E-6                    11.319149141803946
4.5E-6                    11.28859348882672
4.6E-6                    11.258038347331016
4.7E-6                    11.22748370110008
4.8E-6                    11.196895681161998
4.9E-6                    11.166249778002168
4.9999999999999996E-6     11.135604282362717
5.0999999999999995E-6     11.10495918036913
5.199999999999999E-6      11.07429845072622
5.3E-6                    11.043628884371776
5.4E-6                    11.012959792775522
5.5E-6                    10.982291161458816
5.6E-6                    10.951626711197532
5.7E-6                    10.920963011300248
5.7999999999999995E-6     10.890299617048298
5.899999999999999E-6      10.859645065723312
6.0E-6                    10.829034897653367
6.1E-6                    10.79842520321249
6.2E-6                    10.767815969096786
6.3E-6                    10.73729406026339
6.4E-6                    10.70688855509437
6.5E-6                    10.676483222594573
6.5999999999999995E-6     10.646078051908363
6.699999999999999E-6      10.61572650455391
6.799999999999999E-6      10.585399206983645
6.9E-6                    10.5550725427341
7.0E-6                    10.524746496946417
7.1E-6                    10.494579931741105
7.2E-6                    10.46442015960341
7.2999999999999996E-6     10.434260232642233
7.3999999999999995E-6     10.404194279357768
7.499999999999999E-6      10.374456296685931
7.6E-6                    10.344719571158402
7.699999999999999E-6      10.314984085087604
7.8E-6                    10.284699061894479
7.899999999999999E-6      10.253837245581728
8.0E-6                    10.22297471244911
8.1E-6                    10.192111454784612
8.2E-6                    10.162995634849963
8.3E-6                    10.134451690832615
8.4E-6                    10.105908552827334
8.5E-6                    10.077361343808983
8.599999999999999E-6      10.048561388835731
8.7E-6                    10.019761659340812
8.8E-6                    9.990962135077181
8.9E-6                    9.96152727172385
9.0E-6                    9.931761399419026
9.1E-6                    9.901995522091127
9.2E-6                    9.873354787012847
9.299999999999999E-6      9.845368982501613
9.4E-6                    9.817383891793675
9.499999999999999E-6      9.788483028073829
9.6E-6                    9.759490970867075
9.7E-6                    9.730547951355568
9.8E-6                    9.701819107922352
9.9E-6                    9.673090692082232
9.999999999999999E-6      9.644638632197598
1.01E-5                   9.61650530177505
1.0199999999999999E-5     9.588369203723808
1.03E-5                   9.560025076200843
1.0399999999999999E-5     9.531681133773736
1.05E-5                   9.503707933229501
1.06E-5                   9.475822936492843
1.07E-5                   9.447897915337531
1.08E-5                   9.419946408298218
1.0899999999999999E-5     9.39207993165065
1.1E-5                    9.364342492588534
1.1099999999999999E-5     9.336619513561255
1.12E-5                   9.308955969738458
1.13E-5                   9.281292512861087
1.14E-5                   9.253849520707403
1.15E-5                   9.226409758876956
1.1599999999999999E-5     9.198999775869066
1.17E-5                   9.17159820991343
1.1799999999999999E-5     9.144306230040323
1.19E-5                   9.117094992609573
1.2E-5                    9.089947237962816
1.21E-5                   9.06290711306629
1.22E-5                   9.035874506380479
1.2299999999999999E-5     9.008879067118686
1.24E-5                   8.98188379777079
1.2499999999999999E-5     8.955130638291287
1.26E-5                   8.928387787629381
1.2699999999999999E-5     8.901697230274497
1.28E-5                   8.875023798159344
1.29E-5                   8.848436857730057
1.3E-5                    8.821920977104634
1.31E-5                   8.795465730989104
1.3199999999999999E-5     8.769126087656245
1.33E-5                   8.742798081504604
1.3399999999999999E-5     8.71654165707875
1.35E-5                   8.690285398575108
1.3599999999999999E-5     8.664212788883539
1.37E-5                   8.638153531116139
1.38E-5                   8.612178367030682
1.3899999999999999E-5     8.586234791960756
1.4E-5                    8.560364829973913
1.4099999999999999E-5     8.534562240381339
1.42E-5                   8.508812187557673
1.4299999999999999E-5     8.48317525455773
1.44E-5                   8.457551235648184
1.45E-5                   8.4320291332653
1.4599999999999999E-5     8.406507181316991
1.47E-5                   8.381190004287838
1.4799999999999999E-5     8.355894202540778
1.49E-5                   8.330598547015589
1.4999999999999999E-5     8.305303031636843
1.51E-5                   8.280146025103688
1.52E-5                   8.255130188623541
1.53E-5                   8.23011449633304
1.5399999999999998E-5     8.205098942464526
1.55E-5                   8.180108264831343
1.56E-5                   8.155385863671652
1.57E-5                   8.13066360386428
1.5799999999999998E-5     8.105941479834897
1.59E-5                   8.081219485975168
1.6E-5                    8.056685192235589
1.61E-5                   8.032241879705204
1.62E-5                   8.007798699882875
1.63E-5                   7.9833556473951885
1.64E-5                   7.958988042630487
1.6499999999999998E-5     7.934831717395267
1.66E-5                   7.910675519723436
1.67E-5                   7.8865194444894655
1.68E-5                   7.86236348653863
1.69E-5                   7.838448360272756
1.7E-5                    7.814575120919747
1.71E-5                   7.7907020041855235
1.7199999999999998E-5     7.766829005050982
1.73E-5                   7.743078908336791
1.74E-5                   7.719484326441059
1.75E-5                   7.695889859221774
1.76E-5                   7.672295501986982
1.77E-5                   7.648710101804764
1.78E-5                   7.62540506998903
1.7899999999999998E-5     7.6021001575333225
1.8E-5                    7.578795359751713
1.81E-5                   7.555490671934497
1.82E-5                   7.532342184567397
1.8299999999999998E-5     7.509289535781316
1.84E-5                   7.486236987702151
1.85E-5                   7.463184536047375
1.8599999999999998E-5     7.44020334947583
1.87E-5                   7.417491520868405
1.88E-5                   7.394779807113348
1.89E-5                   7.372068203861311
1.8999999999999998E-5     7.3493567067423395
1.91E-5                   7.326753986269608
1.92E-5                   7.304178813801836
1.9299999999999998E-5     7.281603726102922
1.94E-5                   7.259028719091772
1.95E-5                   7.236639314316481
1.96E-5                   7.214543220716478
1.9699999999999998E-5     7.192447224109679
1.98E-5                   7.170351320767032
1.99E-5                   7.148255506942914
1.9999999999999998E-5     7.126159778875275
2.01E-5                   7.10406413278578
2.02E-5                   7.081968564879954
2.03E-5                   7.059873071347313
2.0399999999999998E-5     7.038088400655099
2.05E-5                   7.016542122159717
2.06E-5                   6.994995938864041
2.07E-5                   6.97344984722096
2.0799999999999997E-5     6.951903843668379
2.09E-5                   6.93035792462934
2.1E-5                    6.908812086512158
2.1099999999999998E-5     6.887266325710538
2.12E-5                   6.865720638603717
2.13E-5                   6.844696744414628
2.14E-5                   6.8238520489997745
2.1499999999999997E-5     6.803007442613536
2.16E-5                   6.782162922075115
2.17E-5                   6.761318484191304
2.1799999999999998E-5     6.7404741257565846
2.19E-5                   6.719629843553227
2.2E-5                    6.698785634351408
2.21E-5                   6.677941494909311
2.2199999999999998E-5     6.657319110283616
2.23E-5                   6.636715336942788
2.24E-5                   6.61611164910839
2.2499999999999998E-5     6.595508043558055
2.26E-5                   6.574904517057292
2.27E-5                   6.554301066359608
2.28E-5                   6.533697688206599
2.2899999999999998E-5     6.513094379328066
2.3E-5                    6.492523756775557
2.31E-5                   6.472242452035508
2.3199999999999998E-5     6.451961183291328
2.33E-5                   6.431679948146862
2.34E-5                   6.411398744197883
2.35E-5                   6.391117569032147
2.3599999999999998E-5     6.370836420229477
2.37E-5                   6.350555295361817
2.38E-5                   6.330274191993319
2.3899999999999998E-5     6.31066925322946
2.4E-5                    6.292804877695103
2.41E-5                   6.274940688863048
2.42E-5                   6.25707668392424
2.4299999999999998E-5     6.2392128600603645
2.44E-5                   6.221349214443918
2.45E-5                   6.203485744238288
2.4599999999999998E-5     6.185622446597802
2.4699999999999997E-5     6.1677593186678275
2.48E-5                   6.149275096673912
2.49E-5                   6.130056404230303
2.4999999999999998E-5     6.110837645143978
2.51E-5                   6.091618814115916
2.52E-5                   6.072399905831495
2.53E-5                   6.05318091496072
2.5399999999999997E-5     6.031898716046516
2.55E-5                   6.010273908327346
2.56E-5                   5.9886491674282665
2.5699999999999998E-5     5.967883889893836
2.58E-5                   5.949648195538135
2.59E-5                   5.931412439621146
2.6E-5                    5.913210337090059
2.6099999999999997E-5     5.8950154392986445
2.62E-5                   5.875281427163068
2.63E-5                   5.854761740122698
2.6399999999999998E-5     5.836414877441225
2.65E-5                   5.818437432944526
2.66E-5                   5.8004941985919
2.67E-5                   5.781247639275011
2.6799999999999998E-5     5.7633361421676055
2.69E-5                   5.744977910116888
2.7E-5                    5.726646567156068
2.7099999999999998E-5     5.708805700021597
2.7199999999999997E-5     5.690552887551489
2.73E-5                   5.672521857808111
2.74E-5                   5.654905030315575
2.7499999999999998E-5     5.636840141909496
2.76E-5                   5.619041834009461
2.77E-5                   5.601383191257963
2.7799999999999998E-5     5.583686077528127
2.7899999999999997E-5     5.5660347352567685
2.8E-5                    5.5485490659663546
2.81E-5                   5.530987750489695
2.8199999999999998E-5     5.513559247977633
2.83E-5                   5.49617945554544
2.84E-5                   5.478821235105925
2.8499999999999998E-5     5.461557857782384
2.8599999999999997E-5     5.444321746381947
2.87E-5                   5.427146922549276
2.88E-5                   5.410053071120507
2.8899999999999998E-5     5.392996789493875
2.9E-5                    5.3759901875510705
2.91E-5                   5.359052527247355
2.9199999999999998E-5     5.342142514121979
2.9299999999999997E-5     5.325320671030387
2.94E-5                   5.308522468344589
2.95E-5                   5.291780092153884
2.9599999999999998E-5     5.275095982348829
2.97E-5                   5.258452998075591
2.98E-5                   5.241914096256262
2.99E-5                   5.225390071738478
2.9999999999999997E-5     5.208866082242214
3.01E-5                   5.1924217659098835
3.02E-5                   5.17607364927336
3.0299999999999998E-5     5.159725565876602
3.04E-5                   5.143382670230929
3.05E-5                   5.127201911223074
3.06E-5                   5.111021185690709
3.07E-5                   5.094840492207394
3.0799999999999996E-5     5.078761386056653
3.09E-5                   5.062747610571712
3.1E-5                    5.046733867177251
3.11E-5                   5.030750509267114
3.12E-5                   5.014899604189532
3.13E-5                   4.99904872913578
3.14E-5                   4.98319788276783
3.15E-5                   4.967475121568459
3.1599999999999996E-5     4.951791881291873
3.17E-5                   4.936108671750229
3.18E-5                   4.920479603608244
3.1899999999999996E-5     4.904954611517242
3.2E-5                    4.889429646700556
3.21E-5                   4.873904707897169
3.22E-5                   4.858529463672881
3.23E-5                   4.8431672708145665
3.24E-5                   4.827805106965227
3.25E-5                   4.812522562834354
3.26E-5                   4.797320343840313
3.2699999999999995E-5     4.782118149974209
3.28E-5                   4.766927614356076
3.29E-5                   4.75187932929569
3.2999999999999996E-5     4.736831072341211
3.31E-5                   4.721782842363609
3.32E-5                   4.706891750935528
3.3299999999999996E-5     4.692084010384467
3.34E-5                   4.6772762946762185
3.35E-5                   4.662468602718349
3.36E-5                   4.647660933416618
3.37E-5                   4.632853285674997
3.38E-5                   4.618045658395689
3.39E-5                   4.603480859276286
3.4E-5                    4.588973374807099
3.4099999999999995E-5     4.574465915625522
3.42E-5                   4.559958480716235
3.43E-5                   4.545451069062289
3.4399999999999996E-5     4.530943679645125
3.45E-5                   4.51643631144458
3.46E-5                   4.502223744240547
3.4699999999999996E-5     4.48802197060806
3.48E-5                   4.4738202199581405
3.49E-5                   4.459618491334356
3.5E-5                    4.445416783778822
3.51E-5                   4.431215096332214
3.52E-5                   4.417066182937204
3.53E-5                   4.40330267202
3.54E-5                   4.389539183754833
3.5499999999999996E-5     4.37577571727924
3.56E-5                   4.362012271729496
3.57E-5                   4.348248846240636
3.5799999999999996E-5     4.334485439946457
3.59E-5                   4.320722051979539
3.6E-5                    4.306958681471244
3.6099999999999997E-5     4.293195327551739
3.62E-5                   4.279431989350004
3.63E-5                   4.265668665993837
3.64E-5                   4.251905356609873
3.65E-5                   4.23814206032359
3.6599999999999995E-5     4.224623373678582
3.67E-5                   4.211426679152688
3.68E-5                   4.198230007265694
3.6899999999999996E-5     4.185033357264554
3.7E-5                    4.171836728395186
3.71E-5                   4.158640119902496
3.7199999999999996E-5     4.145443531030384
3.73E-5                   4.132246961021747
3.74E-5                   4.119050409118489
3.75E-5                   4.105853874561539
3.76E-5                   4.092657356590847
3.77E-5                   4.079460854445402
3.78E-5                   4.066264367363239
3.79E-5                   4.053067894581442
3.7999999999999995E-5     4.040282272628944
3.81E-5                   4.027638756438987
3.82E-5                   4.014995258482102
3.8299999999999996E-5     4.002351778092505
3.84E-5                   3.9897083146035954
3.85E-5                   3.977064867347974
3.8599999999999996E-5     3.9644214356574445
3.87E-5                   3.9517780188630205
3.88E-5                   3.939134616294938
3.89E-5                   3.9264912272826566
3.9E-5                    3.913847851154869
3.9099999999999995E-5     3.9012044872395104
3.92E-5                   3.888561134863761
3.93E-5                   3.875945817801391
3.9399999999999995E-5     3.8638182677792723
3.95E-5                   3.851690734710937
3.96E-5                   3.839563218021414
3.9699999999999996E-5     3.8274357171350806
3.98E-5                   3.8153082314756706
3.99E-5                   3.8031807604662835
3.9999999999999996E-5     3.791053303529391
4.01E-5                   3.778925860086833
4.02E-5                   3.7667984295598367
4.03E-5                   3.7546710113690103
4.04E-5                   3.742543604934355
4.0499999999999995E-5     3.7304162096752744
4.06E-5                   3.718288825010568
4.07E-5                   3.706355398104837
4.0799999999999996E-5     3.694758465214666
4.09E-5                   3.6831615464185363
4.1E-5                    3.6715646411982603
4.1099999999999996E-5     3.659967749035123
4.12E-5                   3.6483708694098884
4.13E-5                   3.6367740018028027
4.14E-5                   3.625177145693601
4.15E-5                   3.6135803005615066
4.1599999999999995E-5     3.601983465885244
4.17E-5                   3.590386641143037
4.18E-5                   3.5787898258126156
4.1899999999999995E-5     3.567193019371223
4.2E-5                    3.555596221295616
4.21E-5                   3.544345696907987
4.2199999999999996E-5     3.533260426783413
4.23E-5                   3.5221751703998994
4.24E-5                   3.5110899273153606
4.2499999999999996E-5     3.500004697087301
4.26E-5                   3.4889194792728135
4.27E-5                   3.4778342734285888
4.28E-5                   3.4667490791109192
4.29E-5                   3.455663895875695
4.2999999999999995E-5     3.4445787232784166
4.31E-5                   3.43349356087419
4.32E-5                   3.4224084082177395
4.3299999999999995E-5     3.411323264863406
4.34E-5                   3.400238130365148
4.35E-5                   3.389428456487922
4.3599999999999996E-5     3.3786220630174206
4.37E-5                   3.367815677677392
4.38E-5                   3.357009300068668
4.3899999999999996E-5     3.3462029297917435
4.4E-5                    3.3353965664467786
4.41E-5                   3.324590209633602
4.42E-5                   3.313783858951717
4.43E-5                   3.3029775140002946
4.4399999999999995E-5     3.292171174378189
4.45E-5                   3.2813648396839343
4.46E-5                   3.270558509515748
4.4699999999999996E-5     3.259752183471537
4.48E-5                   3.249151596304183
4.49E-5                   3.2390320492424687
4.4999999999999996E-5     3.2289125114852184
4.51E-5                   3.21879298272041
4.52E-5                   3.208673462635793
4.5299999999999997E-5     3.198553950918892
4.54E-5                   3.188434447257002
4.5499999999999995E-5     3.1783149513372013
4.56E-5                   3.168195462846341
4.57E-5                   3.15807598147106
4.5799999999999995E-5     3.1479565068977773
4.59E-5                   3.1378370388126933
4.6E-5                    3.1277175769018024
4.6099999999999996E-5     3.1179981178813136
4.62E-5                   3.108286936265021
4.63E-5                   3.098575763634607
4.6399999999999996E-5     3.088864599628944
4.65E-5                   3.079153443886644
4.66E-5                   3.0694422960460703
4.67E-5                   3.059731155745332
4.68E-5                   3.0500200226222876
4.6899999999999995E-5     3.040308896314554
4.7E-5                    3.030597776459499
4.71E-5                   3.020886662694252
4.7199999999999995E-5     3.0112356668841675
4.73E-5                   3.001591964009129
4.74E-5                   2.9919482688648773
4.7499999999999996E-5     2.982304581186464
4.76E-5                   2.9726609007087554
4.77E-5                   2.963017227166437
4.7799999999999996E-5     2.9533735602940157
4.79E-5                   2.9437298998258146
4.8E-5                    2.934086245495984
4.81E-5                   2.9245435059705898
4.82E-5                   2.915358705617167
4.8299999999999995E-5     2.9061739103873148
4.84E-5                   2.896989120022186
4.85E-5                   2.887804334262793
4.8599999999999995E-5     2.8786195528499983
4.87E-5                   2.869434775524527
4.88E-5                   2.8602500020269632
4.8899999999999996E-5     2.851095789959709
4.9E-5                    2.841985733032977
4.91E-5                   2.832875684249442
4.9199999999999997E-5     2.823765643359857
4.93E-5                   2.8146556101148095
4.9399999999999995E-5     2.8055455842647308
4.95E-5                   2.7964393176998534
4.96E-5                   2.7875539951938073
4.9699999999999995E-5     2.778668675516124
4.98E-5                   2.7697833584444296
4.99E-5                   2.7608980437562387
4.9999999999999996E-5     2.75201273122896
5.01E-5                   2.7432081661823147
5.02E-5                   2.734452693286946
5.0299999999999996E-5     2.725697228181755
5.04E-5                   2.7169417706369723
5.05E-5                   2.708186320422698
5.06E-5                   2.6994608963043603
5.07E-5                   2.69074006675793
5.0799999999999995E-5     2.682019240148109
5.09E-5                   2.673298416270652
5.1E-5                    2.664720455255624
5.1099999999999995E-5     2.656242506855021
5.12E-5                   2.647764563457552
5.13E-5                   2.6392866248513402
5.1399999999999996E-5     2.6308172400659635
5.15E-5                   2.622350911627986
5.16E-5                   2.6138845888738245
5.1699999999999996E-5     2.6054182716123577
5.18E-5                   2.5970822015215753
5.1899999999999994E-5     2.5887629250739446
5.2E-5                    2.5804436502546317
5.21E-5                   2.5721283362156018
5.2199999999999995E-5     2.5639235481720344
5.23E-5                   2.555718767145176
5.24E-5                   2.547513992947202
5.2499999999999995E-5     2.539319293733155
5.26E-5                   2.531169436139627
5.27E-5                   2.5230195800168063
5.2799999999999996E-5     2.5148697251994414
5.29E-5                   2.5067707623811524
5.3E-5                    2.4987741244502346
5.3099999999999996E-5     2.490777492286074
5.32E-5                   2.4827808657148833
5.3299999999999995E-5     2.4748106005831274
5.34E-5                   2.4668687825773357
5.35E-5                   2.458926966751796
5.3599999999999995E-5     2.4509851529494555
5.37E-5                   2.4431205573401114
5.38E-5                   2.435301366475853
5.3899999999999996E-5     2.427482180262226
5.4E-5                    2.4196629985425098
5.41E-5                   2.4119105876073084
5.4199999999999996E-5     2.404177173036855
5.43E-5                   2.3964437607064784
5.4399999999999994E-5     2.388710350466128
5.4499999999999997E-5     2.381063005908888
5.46E-5                   2.3734224117375597
5.4699999999999995E-5     2.365781821792413
5.48E-5                   2.3581490822478255
5.49E-5                   2.350611604202724
5.4999999999999995E-5     2.3430741284095666
5.51E-5                   2.335536654727032
5.52E-5                   2.32801572832693
5.5299999999999996E-5     2.3205518308642166
5.54E-5                   2.3130879370561135
5.55E-5                   2.305624046771406
5.5599999999999996E-5     2.2982056955308248
5.57E-5                   2.290863670254649
5.5799999999999994E-5     2.2835216478240135
5.59E-5                   2.2761796281080113
5.6E-5                    2.268858930056482
5.6099999999999995E-5     2.2615577200952193
5.62E-5                   2.2542565122708322
5.63E-5                   2.24695530645932
5.6399999999999995E-5     2.2397625131610948
5.65E-5                   2.232622818156641
5.66E-5                   2.22548312728711
5.6699999999999996E-5     2.218343440436203
5.68E-5                   2.2112310326180378
5.69E-5                   2.2041246114356787
5.6999999999999996E-5     2.1970181908911424
5.71E-5                   2.1899364825135073
5.7199999999999994E-5     2.1828998821498917
5.73E-5                   2.1758632854940783
5.74E-5                   2.168852494011679
5.7499999999999995E-5     2.161925947179062
5.76E-5                   2.154999402762639
5.77E-5                   2.148064470045163
5.7799999999999995E-5     2.1411182759963863
5.79E-5                   2.134172082693037
5.8E-5                    2.127332312966667
5.8099999999999996E-5     2.1205043532193253
5.82E-5                   2.113678752317435
5.8299999999999994E-5     2.106854556215538
5.8399999999999997E-5     2.1000670411141904
5.85E-5                   2.093306164548282
5.8599999999999995E-5     2.086561593853205
5.87E-5                   2.079831323285537
5.88E-5                   2.073127862375419
5.8899999999999995E-5     2.066436415179686
5.9E-5                    2.0597766957873573
5.91E-5                   2.0531228765583402
5.9199999999999996E-5     2.0465053764934913
5.93E-5                   2.0398947581732867
5.94E-5                   2.0333190569048036
5.9499999999999996E-5     2.0267569838423527
5.96E-5                   2.0202235330646143
5.9699999999999994E-5     2.013703304723298
5.98E-5                   2.007197370192417
5.99E-5                   2.000726005690469
5.9999999999999995E-5     1.9942742132879672
6.01E-5                   1.9878425731731344
6.02E-5                   1.9814160844750928
6.0299999999999995E-5     1.9750306859966185
6.04E-5                   1.968651838651449
6.05E-5                   1.962309223255908
6.0599999999999996E-5     1.9559813263867647
6.07E-5                   1.9496931350436746
6.08E-5                   1.9434049451468662
6.0899999999999996E-5     1.9371167566164433
6.1E-5                    1.9308758933643098
6.11E-5                   1.9246684146021849
6.12E-5                   1.9184609378317816
6.13E-5                   1.912253462975838
6.14E-5                   1.906109414547177
6.149999999999999E-5      1.899972233208836
6.159999999999999E-5      1.8938350532987815
6.17E-5                   1.8877140024522665
6.18E-5                   1.8816507110585985
6.19E-5                   1.8755874214278596
6.2E-5                    1.869524133488166
6.209999999999999E-5      1.8634984640310792
6.22E-5                   1.8575055919479877
6.23E-5                   1.8515127213223128
6.24E-5                   1.8455198520847627
6.25E-5                   1.8395871361036638
6.26E-5                   1.8336650210440815
6.269999999999999E-5      1.8277429075000373
6.28E-5                   1.821832424788822
6.29E-5                   1.815980310459539
6.3E-5                    1.8101281975759267
6.31E-5                   1.8042760860734024
6.319999999999999E-5      1.7984768914920832
6.33E-5                   1.7927345440049898
6.34E-5                   1.786992197941151
6.35E-5                   1.7812498532396686
6.36E-5                   1.7755075098396296
6.37E-5                   1.769765167680108
6.379999999999999E-5      1.7640228267001647
6.39E-5                   1.7582962474473955
6.4E-5                    1.7526921525482337
6.41E-5                   1.7470880590699114
6.42E-5                   1.7414839669558015
6.429999999999999E-5      1.735879876149267
6.44E-5                   1.7302757865936556
6.45E-5                   1.7246716982323038
6.46E-5                   1.7190676110085374
6.47E-5                   1.7135594935961862
6.48E-5                   1.7080840678477494
6.489999999999999E-5      1.7026086433734675
6.5E-5                    1.697133220120584
6.51E-5                   1.6916577980363336
6.52E-5                   1.6861823770679407
6.53E-5                   1.6807069571626172
6.539999999999999E-5      1.6752803293749738
6.549999999999999E-5      1.6699340489015255
6.56E-5                   1.6645877696136842
6.57E-5                   1.659241491462342
6.58E-5                   1.65389521439838
6.59E-5                   1.6485489383726726
6.599999999999999E-5      1.6432026633360817
6.61E-5                   1.6378576049906561
6.62E-5                   1.6326362501729776
6.63E-5                   1.6274148965155644
6.64E-5                   1.6221935439726862
6.65E-5                   1.616972192498605
6.659999999999999E-5      1.6117508420475757
6.67E-5                   1.6065294925738418
6.68E-5                   1.6013081440316403
6.69E-5                   1.596203030409497
6.7E-5                    1.5911628349334321