% Model:              20230225_JW_4_05.mph
% Version:            COMSOL 5.6.0.401
% Date:               Feb 25 2023, 20:19
% Dimension:          1
% Nodes:              1501
% Expressions:        1
% Description:        点图
% X                       Height
0                         3.371519956425203
1.0E-7                    3.370802871088549
2.0E-7                    3.367543584163188
3.0E-7                    3.3638809583040854
4.0E-7                    3.3725781607537395
5.0E-7                    3.3989152293560263
6.0E-7                    3.4266581984577997
7.0E-7                    3.4442682040880626
8.0E-7                    3.4576938217357256
9.0E-7                    3.4711541411970575
1.0E-6                    3.4844408047942923
1.1E-6                    3.4958001158336716
1.2E-6                    3.5035396927771094
1.2999999999999998E-6     3.5120880056463104
1.4E-6                    3.517163092862155
1.5E-6                    3.5219141605903768
1.6E-6                    3.525282956001579
1.6999999999999998E-6     3.527279049154929
1.8E-6                    3.5287796270710405
1.9E-6                    3.5286537181725732
2.0E-6                    3.5280318011066014
2.1E-6                    3.5263069654284203
2.2E-6                    3.5239775476829664
2.3E-6                    3.5208856030172875
2.4E-6                    3.5170710292983767
2.4999999999999998E-6     3.512823305037652
2.5999999999999997E-6     3.5079589867400967
2.7E-6                    3.5025493450928433
2.8E-6                    3.496609321124377
2.8999999999999998E-6     3.490588270674482
3.0E-6                    3.4837471910004525
3.1E-6                    3.476829039195002
3.2E-6                    3.4695443437305147
3.2999999999999997E-6     3.462073761509948
3.3999999999999996E-6     3.454182495885337
3.5E-6                    3.4461321954326163
3.6E-6                    3.437878796160282
3.6999999999999997E-6     3.4294216085280813
3.8E-6                    3.420811876076753
3.9E-6                    3.411994068194796
4.0E-6                    3.403089079678626
4.1E-6                    3.3940125036609627
4.2E-6                    3.3849027081153773
4.2999999999999995E-6     3.375595040551046
4.4E-6                    3.3662594221763333
4.5E-6                    3.356730900467763
4.6E-6                    3.3472026237917514
4.7E-6                    3.3376745881942727
4.8E-6                    3.3280892148214227
4.9E-6                    3.3184048910303114
4.9999999999999996E-6     3.308720797775209
5.0999999999999995E-6     3.2990369311391494
5.199999999999999E-6      3.289293050650894
5.3E-6                    3.2795143904576363
5.4E-6                    3.269735956966895
5.5E-6                    3.259957746372594
5.6E-6                    3.2501528419053054
5.7E-6                    3.2403450853322537
5.7999999999999995E-6     3.2305375434041617
5.899999999999999E-6      3.220734530750363
6.0E-6                    3.210953945659523
6.1E-6                    3.201173574768881
6.2E-6                    3.191393414369684
6.3E-6                    3.181599593241218
6.4E-6                    3.1717874362093905
6.5E-6                    3.1619754795266135
6.5999999999999995E-6     3.152163719677999
6.699999999999999E-6      3.1424384803012253
6.799999999999999E-6      3.1327516698824733
6.9E-6                    3.1230650570456424
7.0E-6                    3.113378638342244
7.1E-6                    3.103748204677007
7.2E-6                    3.094120390648505
7.2999999999999996E-6     3.0844927608484096
7.3999999999999995E-6     3.0748401034880786
7.499999999999999E-6      3.065099994947945
7.6E-6                    3.0553600716891443
7.699999999999999E-6      3.0456203307725884
7.8E-6                    3.0361576361286535
7.899999999999999E-6      3.026984973654952
8.0E-6                    3.017812499183665
8.1E-6                    3.0086402090022424
8.2E-6                    2.998836066303849
8.3E-6                    2.9888255536417745
8.4E-6                    2.97881519667112
8.5E-6                    2.9688153757611673
8.599999999999999E-6      2.9593556647583465
8.7E-6                    2.9498960760982738
8.8E-6                    2.9404366081496236
8.9E-6                    2.932060418403796
9.0E-6                    2.924248664003714
9.1E-6                    2.916437157001811
9.2E-6                    2.9072432303860034
9.299999999999999E-6      2.8972453294210174
9.4E-6                    2.8872475231546524
9.499999999999999E-6      2.878024277523421
9.6E-6                    2.868878149770182
9.7E-6                    2.8599043116083247
9.8E-6                    2.851679639955748
9.9E-6                    2.843455164337837
9.999999999999999E-6      2.834517363594505
1.01E-5                   2.8247560815000177
1.0199999999999999E-5     2.8150114820161356
1.03E-5                   2.8064555243035847
1.0399999999999999E-5     2.797899710306943
1.05E-5                   2.789342422126949
1.06E-5                   2.7807849064597887
1.07E-5                   2.771974889457752
1.08E-5                   2.7629986375438866
1.0899999999999999E-5     2.7542321152749496
1.1E-5                    2.7457833241718843
1.1099999999999999E-5     2.7372939944419716
1.12E-5                   2.728633836656155
1.13E-5                   2.719973806964456
1.14E-5                   2.7113838554722802
1.15E-5                   2.7027949446443618
1.1599999999999999E-5     2.6943204152132187
1.17E-5                   2.6858779836131452
1.1799999999999999E-5     2.677428324348201
1.19E-5                   2.6689733572068777
1.2E-5                    2.6605284811223053
1.21E-5                   2.6521006735533397
1.22E-5                   2.6436953273082797
1.2299999999999999E-5     2.6354029505092464
1.24E-5                   2.627110693385464
1.2499999999999999E-5     2.618801814374464
1.26E-5                   2.6104923355380407
1.2699999999999999E-5     2.6022427082973225
1.28E-5                   2.5940126391121208
1.29E-5                   2.585818788620411
1.3E-5                    2.577654683606502
1.31E-5                   2.5694948682479444
1.3199999999999999E-5     2.561343160345274
1.33E-5                   2.553207042574928
1.3399999999999999E-5     2.545167472235927
1.35E-5                   2.5371280044737547
1.3599999999999999E-5     2.529085336780272
1.37E-5                   2.5210425265096212
1.38E-5                   2.5130691905780216
1.3899999999999999E-5     2.5051219339333244
1.4E-5                    2.4971902450713324
1.4099999999999999E-5     2.4892728015496477
1.42E-5                   2.481373031792655
1.4299999999999999E-5     2.4735112779791244
1.44E-5                   2.4656569329011697
1.45E-5                   2.4578610083283055
1.4599999999999999E-5     2.4500651726674154
1.47E-5                   2.442317256474075
1.4799999999999999E-5     2.4345743903815817
1.49E-5                   2.426831611917024
1.4999999999999999E-5     2.419088919448886
1.51E-5                   2.4114049652591354
1.52E-5                   2.40378087400962
1.53E-5                   2.3961568674833877
1.5399999999999998E-5     2.3885329441095267
1.55E-5                   2.3809173460213846
1.56E-5                   2.3733911642437873
1.57E-5                   2.3658650643812233
1.5799999999999998E-5     2.358339044942327
1.59E-5                   2.3508131044322087
1.6E-5                    2.3433531758405635
1.61E-5                   2.3359252587867023
1.62E-5                   2.328497419014088
1.63E-5                   2.3210696550806764
1.64E-5                   2.313669287979768
1.6499999999999998E-5     2.306345586096907
1.66E-5                   2.2990219592404917
1.67E-5                   2.291698406038346
1.68E-5                   2.284374925115261
1.69E-5                   2.2771346020169663
1.7E-5                    2.2699087645402867
1.71E-5                   2.262682997321761
1.7199999999999998E-5     2.2554572990376447
1.73E-5                   2.248274912106867
1.74E-5                   2.24114732203866
1.75E-5                   2.2340198007941776
1.76E-5                   2.226892347110136
1.77E-5                   2.2197679292670496
1.78E-5                   2.2127375957163204
1.7899999999999998E-5     2.205707327274392
1.8E-5                    2.1986771227324082
1.81E-5                   2.1916469808790637
1.82E-5                   2.184679136537043
1.8299999999999998E-5     2.1777495255774952
1.84E-5                   2.170819977750625
1.85E-5                   2.163890491887755
1.8599999999999998E-5     2.1569771482902764
1.87E-5                   2.150124701730738
1.88E-5                   2.143272314223166
1.89E-5                   2.1364199846674925
1.8999999999999998E-5     2.1295677119615535
1.91E-5                   2.1228253518921574
1.92E-5                   2.1161108078872464
1.9299999999999998E-5     2.109396322426005
1.94E-5                   2.102681894425127
1.95E-5                   2.0959877149277824
1.96E-5                   2.089325504105394
1.9699999999999998E-5     2.0826633478185803
1.98E-5                   2.076001245058276
1.99E-5                   2.069339194813614
1.9999999999999998E-5     2.062677196071939
2.01E-5                   2.0560152478188276
2.02E-5                   2.0493533490380997
2.03E-5                   2.0426914987118385
2.0399999999999998E-5     2.0361634411723935
2.05E-5                   2.0297379972669543
2.06E-5                   2.023312604730699
2.07E-5                   2.0168872626528724
2.0799999999999997E-5     2.0104619701211934
2.09E-5                   2.0040367262218726
2.1E-5                    1.9976115300396236
2.1099999999999998E-5     1.9911863806576726
2.12E-5                   1.9847612771577798
2.13E-5                   1.9784911955021383
2.14E-5                   1.9722743649264256
2.1499999999999997E-5     1.9660575807335288
2.16E-5                   1.959840842097882
2.17E-5                   1.9536241481926213
2.1799999999999998E-5     1.9474074981895957
2.19E-5                   1.941190891259376
2.2E-5                    1.9349743265712696
2.21E-5                   1.9287578032933288
2.2199999999999998E-5     1.9226988956892652
2.23E-5                   1.9166531987282607
2.24E-5                   1.910607545355947
2.2499999999999998E-5     1.9045619347991543
2.26E-5                   1.8985163662835731
2.27E-5                   1.8924708390337661
2.28E-5                   1.886425352273175
2.2899999999999998E-5     1.8803799052241357
2.3E-5                    1.874334614251978
2.31E-5                   1.8682904011673116
2.3199999999999998E-5     1.862246227144729
2.33E-5                   1.85620209139825
2.34E-5                   1.8501579931407943
2.35E-5                   1.8441139315841981
2.3599999999999998E-5     1.838069905939219
2.37E-5                   1.8320259154155503
2.38E-5                   1.8259819592218276
2.3899999999999998E-5     1.8200680003194853
2.4E-5                    1.8144886102423248
2.41E-5                   1.808909255818641
2.42E-5                   1.8033299366226818
2.4299999999999998E-5     1.797750652228105
2.44E-5                   1.7921714022079742
2.45E-5                   1.7865921861347707
2.4599999999999998E-5     1.7810130035803895
2.4699999999999997E-5     1.7754338541161518
2.48E-5                   1.7704926637432272
2.49E-5                   1.766305672869523
2.4999999999999998E-5     1.7621187068668496
2.51E-5                   1.7579317650955317
2.52E-5                   1.7537448469153591
2.53E-5                   1.7495579516855926
2.5399999999999997E-5     1.7440561955188982
2.55E-5                   1.738336106986142
2.56E-5                   1.7326160774694292
2.5699999999999998E-5     1.7262533764088643
2.58E-5                   1.7179988676819193
2.59E-5                   1.7097443834071164
2.6E-5                    1.7034720425325356
2.6099999999999997E-5     1.69761557778432
2.62E-5                   1.6928602797538834
2.63E-5                   1.6886672477164535
2.6399999999999998E-5     1.6825658535080785
2.65E-5                   1.6763091155142726
2.66E-5                   1.6702353038922573
2.67E-5                   1.6651856737509325
2.6799999999999998E-5     1.6596154641703134
2.69E-5                   1.6540558026658383
2.7E-5                    1.6487884642355017
2.7099999999999998E-5     1.643361334038651
2.7199999999999997E-5     1.6380081766126775
2.73E-5                   1.6327508577548797
2.74E-5                   1.6272158320355847
2.7499999999999998E-5     1.622092083237715
2.76E-5                   1.616858631960472
2.77E-5                   1.6115733234388556
2.7799999999999998E-5     1.6063610580134007
2.7899999999999997E-5     1.6011743158587954
2.8E-5                    1.596018658599303
2.81E-5                   1.5908112589763024
2.8199999999999998E-5     1.5857288430800989
2.83E-5                   1.580594028640889
2.84E-5                   1.5755235399964793
2.8499999999999998E-5     1.5704316451195275
2.8599999999999997E-5     1.5653808091904893
2.87E-5                   1.5603542061239224
2.88E-5                   1.5553294640667783
2.8899999999999998E-5     1.5503263847840278
2.9E-5                    1.5453519411065122
2.91E-5                   1.5403870399467057
2.9199999999999998E-5     1.5354262198261737
2.9299999999999997E-5     1.5305064773357044
2.94E-5                   1.5255925271152952
2.95E-5                   1.5206922291354064
2.9599999999999998E-5     1.5158098645080114
2.97E-5                   1.510940165352103
2.98E-5                   1.5061047620730832
2.99E-5                   1.5012742666866867
2.9999999999999997E-5     1.4964437901241099
3.01E-5                   1.491637846930959
3.02E-5                   1.486861525317294
3.0299999999999998E-5     1.4820852234405961
3.04E-5                   1.4773106206382762
3.05E-5                   1.4725888466254464
3.06E-5                   1.4678670912027054
3.07E-5                   1.4631453540115165
3.0799999999999996E-5     1.458452917914193
3.09E-5                   1.453779328233128
3.1E-5                    1.4491057565159327
3.11E-5                   1.4444424230748631
3.12E-5                   1.439823694824145
3.13E-5                   1.4352049842731216
3.14E-5                   1.43058629108522
3.15E-5                   1.4260015434756232
3.1599999999999996E-5     1.4214272753391435
3.17E-5                   1.4168530237150012
3.18E-5                   1.4122976240225429
3.1899999999999996E-5     1.4077784586661266
3.2E-5                    1.4032593099085893
3.21E-5                   1.398740177435466
3.22E-5                   1.394263235587735
3.23E-5                   1.3897899786826409
3.24E-5                   1.3853167371852873
3.25E-5                   1.3808675226009117
3.26E-5                   1.3764425485423493
3.2699999999999995E-5     1.3720175898932747
3.28E-5                   1.3675965447770804
3.29E-5                   1.363223171016396
3.2999999999999996E-5     1.3588498120049375
3.31E-5                   1.3544764674579401
3.32E-5                   1.3501451702422866
3.3299999999999996E-5     1.345836179889155
3.34E-5                   1.3415272038508186
3.35E-5                   1.3372182418582037
3.36E-5                   1.3329092936420486
3.37E-5                   1.3286003589329052
3.38E-5                   1.3242914374611436
3.39E-5                   1.320065274034644
3.4E-5                    1.3158586473169231
3.4099999999999995E-5     1.3116520339977102
3.42E-5                   1.3074454338240082
3.43E-5                   1.3032388465426523
3.4399999999999996E-5     1.2990322719003131
3.45E-5                   1.2948257096434956
3.46E-5                   1.2907002662893856
3.4699999999999996E-5     1.286577799021101
3.48E-5                   1.2824553444122107
3.49E-5                   1.2783329022269445
3.5E-5                    1.2742104722293848
3.51E-5                   1.2700880541834627
3.52E-5                   1.265981399535303
3.53E-5                   1.2619898248187025
3.54E-5                   1.2579982620858676
3.5499999999999996E-5     1.254006711122975
3.56E-5                   1.2500151717160684
3.57E-5                   1.2460236436510652
3.5799999999999996E-5     1.2420321267137537
3.59E-5                   1.238040620689794
3.6E-5                    1.2340491253647214
3.6099999999999997E-5     1.2300576405239467
3.62E-5                   1.226066165952756
3.63E-5                   1.2220747014363147
3.64E-5                   1.218083246759666
3.65E-5                   1.2140918017077322
3.6599999999999995E-5     1.2101755372963128
3.67E-5                   1.2063582338694263
3.68E-5                   1.2025409412199355
3.6899999999999996E-5     1.1987236591607175
3.7E-5                    1.1949063875045434
3.71E-5                   1.1910891260640815
3.7199999999999996E-5     1.1872718746518953
3.73E-5                   1.1834546330804459
3.74E-5                   1.1796374011620931
3.75E-5                   1.1758201787090963
3.76E-5                   1.1720029655336137
3.77E-5                   1.1681857614477056
3.78E-5                   1.1643685662633345
3.79E-5                   1.1605513797923648
3.7999999999999995E-5     1.1568563740966307
3.81E-5                   1.1532036311078664
3.82E-5                   1.1495508976974447
3.8299999999999996E-5     1.1458981737017284
3.84E-5                   1.142245458956996
3.85E-5                   1.1385927532994422
3.8599999999999996E-5     1.1349400565651793
3.87E-5                   1.1312873685902365
3.88E-5                   1.1276346892105613
3.89E-5                   1.1239820182620208
3.9E-5                    1.1203293555804024
3.9099999999999995E-5     1.1166767010014127
3.92E-5                   1.113024054360681
3.93E-5                   1.109378978473954
3.9399999999999995E-5     1.1058655407958822
3.95E-5                   1.1023521111717003
3.96E-5                   1.0988386894575077
3.9699999999999996E-5     1.095325275509336
3.98E-5                   1.0918118691831498
3.99E-5                   1.0882984703348477
3.9999999999999996E-5     1.0847850788202638
4.01E-5                   1.0812716944951666
4.02E-5                   1.07775831721526
4.03E-5                   1.074244946836186
4.04E-5                   1.070731583213521
4.0499999999999995E-5     1.067218226202782
4.06E-5                   1.063704875659421
4.07E-5                   1.0602588491766847
4.0799999999999996E-5     1.056929619761127
4.09E-5                   1.0536003978097404
4.1E-5                    1.0502711831973648
4.1099999999999996E-5     1.0469419757987861
4.12E-5                   1.0436127754887368
4.13E-5                   1.040283582141896
4.14E-5                   1.0369543956328902
4.15E-5                   1.0336252158362922
4.1599999999999995E-5     1.0302960426266259
4.17E-5                   1.0269668758783612
4.18E-5                   1.0236377154659189
4.1899999999999995E-5     1.0203085612636682
4.2E-5                    1.0169794131459293
4.21E-5                   1.0137320190710646
4.2199999999999996E-5     1.0105236420929613
4.23E-5                   1.0073152712443403
4.24E-5                   1.004106906416239
4.2499999999999996E-5     1.000898547499653
4.26E-5                   0.9976901943855344
4.27E-5                   0.9944818469647957
4.28E-5                   0.9912735051283071
4.29E-5                   0.9880651687668972
4.2999999999999995E-5     0.9848568377713559
4.31E-5                   0.9816485120324313
4.32E-5                   0.9784401914408326
4.3299999999999995E-5     0.9752318758872296
4.34E-5                   0.9720235652622524
4.35E-5                   0.9689381707007181
4.3599999999999996E-5     0.9658542416203627
4.37E-5                   0.9627703179586002
4.38E-5                   0.9596863996142598
4.3899999999999996E-5     0.9566024864861363
4.4E-5                    0.9535185784729878
4.41E-5                   0.9504346754735394
4.42E-5                   0.9473507773864808
4.43E-5                   0.9442668841104664
4.4399999999999995E-5     0.9411829955441184
4.45E-5                   0.938099111586024
4.46E-5                   0.9350152321347381
4.4699999999999996E-5     0.9319313570887822
4.48E-5                   0.9288723960379088
4.49E-5                   0.9258716813864307
4.4999999999999996E-5     0.922870971537099
4.51E-5                   0.9198702664066002
4.52E-5                   0.916869565911594
4.5299999999999997E-5     0.9138688699687129
4.54E-5                   0.9108681784945601
4.5499999999999995E-5     0.9078674914057134
4.56E-5                   0.9048668086187227
4.57E-5                   0.9018661300501115
4.5799999999999995E-5     0.8988654556163769
4.59E-5                   0.895864785233989
4.6E-5                    0.8928641188193932
4.6099999999999996E-5     0.8901463915741471
4.62E-5                   0.887434516420124
4.63E-5                   0.8847226449021128
4.6399999999999996E-5     0.8820107769497685
4.65E-5                   0.8792989124927256
4.66E-5                   0.8765870514606013
4.67E-5                   0.8738751937829929
4.68E-5                   0.8711633393894783
4.6899999999999995E-5     0.8684514882096181
4.7E-5                    0.8657396401729534
4.71E-5                   0.863027795209008
4.7199999999999995E-5     0.8603093185933629
4.73E-5                   0.8575900423310467
4.74E-5                   0.854870770495899
4.7499999999999996E-5     0.8521515030146045
4.76E-5                   0.8494322398138271
4.77E-5                   0.8467129808202091
4.7799999999999996E-5     0.843993725960372
4.79E-5                   0.8412744751609159
4.8E-5                    0.8385552283484209
4.81E-5                   0.8358278507673289
4.82E-5                   0.8330716219760951
4.8299999999999995E-5     0.8303153960612233
4.84E-5                   0.8275591729630449
4.85E-5                   0.824802952621877
4.8599999999999995E-5     0.8220467349780214
4.87E-5                   0.8192905199717648
4.88E-5                   0.8165343075433793
4.8899999999999996E-5     0.8138840584405381
4.9E-5                    0.8113868985962132
4.91E-5                   0.8088897421355453
4.9199999999999997E-5     0.8063925889984757
4.93E-5                   0.8038954391249304
4.9399999999999995E-5     0.8013982924548214
4.95E-5                   0.798899504696556
4.96E-5                   0.7963039020136972
4.9699999999999995E-5     0.7937083025296477
4.98E-5                   0.7911127061877798
4.99E-5                   0.7885171129314519
4.9999999999999996E-5     0.7859215227040082
5.01E-5                   0.7833647879656557
5.02E-5                   0.7808316740230198
5.0299999999999996E-5     0.7782985621838011
5.04E-5                   0.7757654523976352
5.05E-5                   0.7732323446141461
5.06E-5                   0.7707887077491243
5.07E-5                   0.7683587579482564
5.0799999999999995E-5     0.7659288116516809
5.09E-5                   0.7634988688041784
5.1E-5                    0.7610324896700519
5.1099999999999995E-5     0.7585406034782648
5.12E-5                   0.7560487191292115
5.13E-5                   0.7535568365768678
5.1399999999999996E-5     0.7511400260800195
5.15E-5                   0.7487500059768745
5.16E-5                   0.746359988649342
5.1699999999999996E-5     0.7439699740494186
5.18E-5                   0.7415772608463648
5.1899999999999994E-5     0.739184201760052
5.2E-5                    0.7367911449960528
5.21E-5                   0.7343987497724909
5.2199999999999995E-5     0.732024759563745
5.23E-5                   0.729650771415445
5.24E-5                   0.7272767852861337
5.2499999999999995E-5     0.7249158679310591
5.26E-5                   0.7226131440978234
5.27E-5                   0.7203104227661271
5.2799999999999996E-5     0.7180077038915961
5.29E-5                   0.7156990113773037
5.3E-5                    0.7133783054856007
5.3099999999999996E-5     0.711057601381929
5.32E-5                   0.7087368990271012
5.3299999999999995E-5     0.7064457941593673
5.34E-5                   0.7041866319217068
5.35E-5                   0.7019274719989633
5.3599999999999995E-5     0.6996683143517862
5.37E-5                   0.6974193227242549
5.38E-5                   0.6951763088364655
5.3899999999999996E-5     0.6929332966066476
5.4E-5                    0.6906902859965508
5.41E-5                   0.6884644046590519
5.4199999999999996E-5     0.6862433979081047
5.43E-5                   0.6840223932757838
5.4399999999999994E-5     0.6818013907269564
5.4499999999999997E-5     0.6796203896388598
5.46E-5                   0.6774425255222369
5.4699999999999995E-5     0.6752646629699225
5.48E-5                   0.6730874140765737
5.49E-5                   0.6709175985004384
5.4999999999999995E-5     0.6687477848220871
5.51E-5                   0.6665779730089966
5.52E-5                   0.6644183085191063
5.5299999999999996E-5     0.6622936137061637
5.54E-5                   0.6601689205279042
5.55E-5                   0.6580442289510346
5.5599999999999996E-5     0.6559226986445085
5.57E-5                   0.6538064659198886
5.5799999999999994E-5     0.6516902347411812
5.59E-5                   0.6495740050777623
5.6E-5                    0.6474812683531332
5.6099999999999995E-5     0.6454100046627506
5.62E-5                   0.6433387427029157
5.63E-5                   0.6412674824432396
5.6399999999999995E-5     0.6391982140714016
5.65E-5                   0.6371299217392552
5.66E-5                   0.6350616306399304
5.6699999999999996E-5     0.6329933407444127
5.68E-5                   0.6309645166387847
5.69E-5                   0.6289443548432054
5.6999999999999996E-5     0.6269241947706524
5.71E-5                   0.6249179740837784
5.7199999999999994E-5     0.6229371946105045
5.73E-5                   0.6209564161490444
5.74E-5                   0.6189664373120907
5.7499999999999995E-5     0.6169464176252134
5.76E-5                   0.6149263996768406
5.77E-5                   0.6129343020314592
5.7799999999999995E-5     0.6109796802744729
5.79E-5                   0.609025059522958
5.8E-5                    0.6070615140529056
5.8099999999999996E-5     0.6050969799096918
5.82E-5                   0.6031274881573856
5.8299999999999994E-5     0.6011550357673363
5.8399999999999997E-5     0.599213911622604
5.85E-5                   0.5972955330638294
5.8599999999999995E-5     0.5953680470201191
5.87E-5                   0.5934325714843691
5.88E-5                   0.591508897741884
5.8899999999999995E-5     0.5895905103359325
5.9E-5                    0.5876874417002764
5.91E-5                   0.5857871497787877
5.9199999999999996E-5     0.5838933174489356
5.93E-5                   0.5820012093291399
5.94E-5                   0.580117848331331
5.9499999999999996E-5     0.5782389737694065
5.96E-5                   0.5763695215519357
5.9699999999999994E-5     0.5745065070966072
5.98E-5                   0.5726504513568066
5.99E-5                   0.5707968826609044
5.9999999999999995E-5     0.5689447227825462
6.01E-5                   0.5671079101987537
6.02E-5                   0.5652750198212876
6.0299999999999995E-5     0.5634481682784928
6.04E-5                   0.5616228515279297
6.05E-5                   0.5598073696437001
6.0599999999999996E-5     0.5579969845524472
6.07E-5                   0.5562003484915351
6.08E-5                   0.5544037133532166
6.0899999999999996E-5     0.5526070791181734
6.1E-5                    0.5508226814781829
6.11E-5                   0.549046915973924
6.12E-5                   0.5472711514851016
6.13E-5                   0.5454953879930563
6.14E-5                   0.5437393975324876
6.149999999999999E-5      0.5419855482494176
6.159999999999999E-5      0.5402316998404347
6.17E-5                   0.5384822756265784
6.18E-5                   0.5367486935261031
6.19E-5                   0.5350151123483611
6.2E-5                    0.533281532075995
6.209999999999999E-5      0.531559133096086
6.22E-5                   0.5298464824917687
6.23E-5                   0.5281338327337344
6.24E-5                   0.5264211838052445
6.25E-5                   0.5247255799346227
6.26E-5                   0.523032980268394
6.269999999999999E-5      0.5213403814300993
6.28E-5                   0.5196511137270937
6.29E-5                   0.5179785614560211
6.3E-5                    0.5163060099920662
6.31E-5                   0.5146334593196411
6.319999999999999E-5      0.5129761402194803
6.33E-5                   0.5113351838971051
6.34E-5                   0.5096942283515645
6.35E-5                   0.5080532735681506
6.36E-5                   0.5064123195321542
6.37E-5                   0.5047713662288651
6.379999999999999E-5      0.5031304136435711
6.39E-5                   0.5014940002221928
6.4E-5                    0.4998928580224968
6.41E-5                   0.49829171655585214
6.42E-5                   0.49669057580858744
6.429999999999999E-5      0.4950894357670298
6.44E-5                   0.49348829641750386
6.45E-5                   0.4918871577463343
6.46E-5                   0.4902860197398443
6.47E-5                   0.48871258686326985
6.48E-5                   0.48714859180820047
6.489999999999999E-5      0.4855845974346421
6.5E-5                    0.4840206037298542
6.51E-5                   0.48245661068109663
6.52E-5                   0.4808926182756272
6.53E-5                   0.47932862650070285
6.539999999999999E-5      0.4777783504928684
6.549999999999999E-5      0.4762506603734292
6.56E-5                   0.4747229708867133
6.57E-5                   0.4731952820208645
6.58E-5                   0.4716675937640253
6.59E-5                   0.470139906104337
6.599999999999999E-5      0.46861221902994055
6.61E-5                   0.4670848898745691
6.62E-5                   0.465593921157002
6.63E-5                   0.4641029530349512