% Model:              20230225_JW_4_05.mph
% Version:            COMSOL 5.6.0.401
% Date:               Feb 25 2023, 20:19
% Dimension:          1
% Nodes:              1501
% Expressions:        1
% Description:        点图
% X                       Height
0                         1.526759660050797
1.0E-7                    1.5264511121252244
2.0E-7                    1.5242196280971059
3.0E-7                    1.5183193890763742
4.0E-7                    1.5162742341926985
5.0E-7                    1.5310152697435473
6.0E-7                    1.5545830711906865
7.0E-7                    1.566582577049519
8.0E-7                    1.57041413598613
9.0E-7                    1.583552193587391
1.0E-6                    1.5933613880547772
1.1E-6                    1.5982285787918382
1.2E-6                    1.6070178612642798
1.2999999999999998E-6     1.6113984184175603
1.4E-6                    1.6172642196489033
1.5E-6                    1.6206914692731944
1.6E-6                    1.6240185831494331
1.6999999999999998E-6     1.6267909884262652
1.8E-6                    1.6284663945668374
1.9E-6                    1.6301733892116306
2.0E-6                    1.6307857673977562
2.1E-6                    1.6312856077321622
2.2E-6                    1.6310820027908055
2.3E-6                    1.630511204444385
2.4E-6                    1.629629525736684
2.4999999999999998E-6     1.6283258990374714
2.5999999999999997E-6     1.6267208868038077
2.7E-6                    1.6248680288847928
2.8E-6                    1.6225652808573465
2.8999999999999998E-6     1.62020566520877
3.0E-6                    1.6174861161447254
3.1E-6                    1.6146986428747447
3.2E-6                    1.611588595730918
3.2999999999999997E-6     1.6083980360084797
3.3999999999999996E-6     1.6050253353661432
3.5E-6                    1.6015229084141525
3.6E-6                    1.5978548339931282
3.6999999999999997E-6     1.5940903306103906
3.8E-6                    1.590253645392911
3.9E-6                    1.5862806384509525
4.0E-6                    1.5822504731617042
4.1E-6                    1.578101768411339
4.2E-6                    1.573930056325041
4.2999999999999995E-6     1.5696713838313077
4.4E-6                    1.5653932224507263
4.5E-6                    1.5609670320673665
4.6E-6                    1.5565409448350256
4.7E-6                    1.5521149594637687
4.8E-6                    1.5476599492270333
4.9E-6                    1.543154863458668
4.9999999999999996E-6     1.5386498751586386
5.0999999999999995E-6     1.534144982970916
5.199999999999999E-6      1.5295875227289075
5.3E-6                    1.524999555718462
5.4E-6                    1.5204116883932437
5.5E-6                    1.515823919428248
5.6E-6                    1.5112130280294067
5.7E-6                    1.5065995845273066
5.7999999999999995E-6     1.5019862366171506
5.899999999999999E-6      1.4973768501362175
6.0E-6                    1.4927874513048642
6.1E-6                    1.4881981468940393
6.2E-6                    1.4836089355892008
6.3E-6                    1.4790003883747826
6.4E-6                    1.4743659609752093
6.5E-6                    1.4697316260826965
6.5999999999999995E-6     1.4650973824200622
6.699999999999999E-6      1.460506724261822
6.799999999999999E-6      1.45593541691936
6.9E-6                    1.45136419737166
7.0E-6                    1.4467930643866422
7.1E-6                    1.4422826662605102
7.2E-6                    1.4377749983524144
7.2999999999999996E-6     1.4332674159178165
7.3999999999999995E-6     1.4287244117988576
7.499999999999999E-6      1.424058058279686
7.6E-6                    1.4193917897674162
7.699999999999999E-6      1.4147256051172503
7.8E-6                    1.4102714701309518
7.899999999999999E-6      1.4060393183120516
8.0E-6                    1.4018072457450903
8.1E-6                    1.3975752512953454
8.2E-6                    1.3930214941439396
8.3E-6                    1.3883626503600368
8.4E-6                    1.383703887820265
8.5E-6                    1.3790404002355137
8.599999999999999E-6      1.3741271201991845
8.7E-6                    1.3692139059006332
8.8E-6                    1.3643007566249155
8.9E-6                    1.3605400833490424
9.0E-6                    1.3573797668173986
9.1E-6                    1.3542195291864292
9.2E-6                    1.3500901604466042
9.299999999999999E-6      1.345397213318543
9.4E-6                    1.340704336092165
9.499999999999999E-6      1.3358386747593263
9.6E-6                    1.3309558838817868
9.7E-6                    1.3264067998085174
9.8E-6                    1.3233094510293235
9.9E-6                    1.32021219399634
9.999999999999999E-6      1.3161693131965224
1.01E-5                   1.311034863008633
1.0199999999999999E-5     1.3059148877661158
1.03E-5                   1.301828947722699
1.0399999999999999E-5     1.2977430670412917
1.05E-5                   1.294151694783305
1.06E-5                   1.2906776121344052
1.07E-5                   1.2863680727427782
1.08E-5                   1.2815084542143735
1.0899999999999999E-5     1.2771794498316515
1.1E-5                    1.2736543773187394
1.1099999999999999E-5     1.270005801684739
1.12E-5                   1.2658379528325168
1.13E-5                   1.2616701595527626
1.14E-5                   1.257462282297155
1.15E-5                   1.253253915388014
1.1599999999999999E-5     1.2494786825855755
1.17E-5                   1.2458246477322084
1.1799999999999999E-5     1.2418254244207796
1.19E-5                   1.2375721556784123
1.2E-5                    1.2334980858563325
1.21E-5                   1.2297282516247614
1.22E-5                   1.2259283865631891
1.2299999999999999E-5     1.221976610225883
1.24E-5                   1.2180248854439313
1.2499999999999999E-5     1.2140977496170193
1.26E-5                   1.2101716842118082
1.2699999999999999E-5     1.2063598885618838
1.28E-5                   1.2025853133493158
1.29E-5                   1.1987295222361571
1.3E-5                    1.19480704450428
1.31E-5                   1.190947564050186
1.3199999999999999E-5     1.18720832819974
1.33E-5                   1.1834584820243628
1.3399999999999999E-5     1.1796422824277144
1.35E-5                   1.1758261274784598
1.3599999999999999E-5     1.1720743530704907
1.37E-5                   1.1683272460923135
1.38E-5                   1.164602310050123
1.3899999999999999E-5     1.160885704880987
1.4E-5                    1.1571648646316834
1.4099999999999999E-5     1.153440149459323
1.42E-5                   1.14973696255465
1.4299999999999999E-5     1.1460801582447802
1.44E-5                   1.1424221334563216
1.45E-5                   1.138754062351696
1.4599999999999999E-5     1.1350860308314359
1.47E-5                   1.1314650538262878
1.4799999999999999E-5     1.1278489943055727
1.49E-5                   1.124232975511548
1.4999999999999999E-5     1.1206169968595896
1.51E-5                   1.1170246360762162
1.52E-5                   1.113456344134021
1.53E-5                   1.1098880904321125
1.5399999999999998E-5     1.1063198744149367
1.55E-5                   1.1027560196787332
1.56E-5                   1.0992390616684429
1.57E-5                   1.095722140953529
1.5799999999999998E-5     1.0922052570019658
1.59E-5                   1.0886884092810705
1.6E-5                    1.0852031435367724
1.61E-5                   1.0817331921699778
1.62E-5                   1.0782632763847118
1.63E-5                   1.0747933956695963
1.64E-5                   1.0713355321483065
1.6499999999999998E-5     1.0679112924280014
1.66E-5                   1.064487086434021
1.67E-5                   1.0610629136797958
1.68E-5                   1.0576387736781925
1.69E-5                   1.0542614629639198
1.7E-5                    1.0508923036658842
1.71E-5                   1.0475231769034115
1.7199999999999998E-5     1.044154082206179
1.73E-5                   1.0408013773845786
1.74E-5                   1.037469406382605
1.75E-5                   1.0341374663387763
1.76E-5                   1.030805556807773
1.77E-5                   1.0274753889844168
1.78E-5                   1.0241994432872619
1.7899999999999998E-5     1.0209235275066268
1.8E-5                    1.0176476412113455
1.81E-5                   1.0143717839697943
1.82E-5                   1.011121657050953
1.8299999999999998E-5     1.0078873219689612
1.84E-5                   1.0046530153986635
1.85E-5                   1.001418736931698
1.8599999999999998E-5     0.9981925822111437
1.87E-5                   0.9949970827252951
1.88E-5                   0.9918016103644494
1.89E-5                   0.9886061647326692
1.8999999999999998E-5     0.9854107454336235
1.91E-5                   0.9822700342903282
1.92E-5                   0.9791431659407699
1.9299999999999998E-5     0.9760163238657545
1.94E-5                   0.9728895076934606
1.95E-5                   0.9697710981402728
1.96E-5                   0.9666659600736156
1.9699999999999998E-5     0.963560847102914
1.98E-5                   0.9604557588667292
1.99E-5                   0.9573506950032841
1.9999999999999998E-5     0.9542456551504626
2.01E-5                   0.9511406389458149
2.02E-5                   0.9480356460265617
2.03E-5                   0.9449306760295941
2.0399999999999998E-5     0.9418871368389536
2.05E-5                   0.9388907115080365
2.06E-5                   0.9358943090076991
2.07E-5                   0.9328979290169638
2.0799999999999997E-5     0.9299015712145693
2.09E-5                   0.9269052352789735
2.1E-5                    0.9239089208883555
2.1099999999999998E-5     0.9209126277206197
2.12E-5                   0.9179163554533959
2.13E-5                   0.9149992484739217
2.14E-5                   0.9121093336586341
2.1499999999999997E-5     0.9092194401449472
2.16E-5                   0.9063295676411156
2.17E-5                   0.9034397158551495
2.1799999999999998E-5     0.9005498844948165
2.19E-5                   0.897660073267644
2.2E-5                    0.8947702818809209
2.21E-5                   0.8918805100417007
2.2199999999999998E-5     0.8890634904294898
2.23E-5                   0.8862525673996362
2.24E-5                   0.8834416633668598
2.2499999999999998E-5     0.8806307780635181
2.26E-5                   0.8778199112217594
2.27E-5                   0.8750090625735278
2.28E-5                   0.8721982318505622
2.2899999999999998E-5     0.8693874187844008
2.3E-5                    0.8665787603258119
2.31E-5                   0.8637890718547409
2.3199999999999998E-5     0.860999401284793
2.33E-5                   0.8582097483418341
2.34E-5                   0.855420112751529
2.35E-5                   0.8526304942393433
2.3599999999999998E-5     0.8498408925305458
2.37E-5                   0.8470513073502093
2.38E-5                   0.8442617384232132
2.3899999999999998E-5     0.8414986226601231
2.4E-5                    0.8388035742464901
2.41E-5                   0.8361085426917251
2.42E-5                   0.8334135278189077
2.4299999999999998E-5     0.8307185294509792
2.44E-5                   0.8280235474107455
2.45E-5                   0.8253285815208757
2.4599999999999998E-5     0.8226336316039055
2.4699999999999997E-5     0.8199386974822358
2.48E-5                   0.8176829357854416
2.49E-5                   0.8159463665979055
2.4999999999999998E-5     0.8142098060919589
2.51E-5                   0.8124732541378851
2.52E-5                   0.810736710605916
2.53E-5                   0.8090001753662313
2.5399999999999997E-5     0.8067807244847425
2.55E-5                   0.8044810795707816
2.56E-5                   0.802181449962809
2.5699999999999998E-5     0.7993555575742884
2.58E-5                   0.794980617203826
2.59E-5                   0.7906057100810975
2.6E-5                    0.7872268350793917
2.6099999999999997E-5     0.7840569387898219
2.62E-5                   0.7821641379195352
2.63E-5                   0.7809233298805187
2.6399999999999998E-5     0.7781807078815536
2.65E-5                   0.7749602456706213
2.66E-5                   0.7714867955014993
2.67E-5                   0.7695140167564045
2.6799999999999998E-5     0.7672608622981217
2.69E-5                   0.7642986478380296
2.7E-5                    0.7618107528579076
2.7099999999999998E-5     0.7595247897995607
2.7199999999999997E-5     0.7568806206004441
2.73E-5                   0.7544372799790758
2.74E-5                   0.7519823182864132
2.7499999999999998E-5     0.7493845339314948
2.76E-5                   0.7471183462924026
2.77E-5                   0.7446125739413095
2.7799999999999998E-5     0.7421654060439451
2.7899999999999997E-5     0.7397901392728748
2.8E-5                    0.7373774415628422
2.81E-5                   0.7349646543394559
2.8199999999999998E-5     0.7325849395401322
2.83E-5                   0.7302337680195776
2.84E-5                   0.7278443938608026
2.8499999999999998E-5     0.725515017654527
2.8599999999999997E-5     0.7231595397417159
2.87E-5                   0.7208018264497489
2.88E-5                   0.7184980803008426
2.8899999999999998E-5     0.7161838119778723
2.9E-5                    0.7138556228880732
2.91E-5                   0.7115520081596869
2.9199999999999998E-5     0.709258116564935
2.9299999999999997E-5     0.7069801455048785
2.94E-5                   0.7047011371759602
2.95E-5                   0.7024196680147492
2.9599999999999998E-5     0.7001569942836234
2.97E-5                   0.6979075869994252
2.98E-5                   0.6956639440960776
2.99E-5                   0.693421131344103
2.9999999999999997E-5     0.6911783277051453
3.01E-5                   0.6889492848323914
3.02E-5                   0.686736856209262
3.0299999999999998E-5     0.6845244362724934
3.04E-5                   0.6823127858771014
3.05E-5                   0.6801250692963539
3.06E-5                   0.6779373612365761
3.07E-5                   0.6757496615729925
3.0799999999999996E-5     0.6735738727210098
3.09E-5                   0.6714057451455313
3.1E-5                    0.6692376257720617
3.11E-5                   0.6670753734540635
3.12E-5                   0.6649386888368564
3.13E-5                   0.6628020121544197
3.14E-5                   0.6606653432895954
3.15E-5                   0.6585394659517252
3.1599999999999996E-5     0.6564169217794456
3.17E-5                   0.6542943852359877
3.18E-5                   0.6521825397685709
3.1899999999999996E-5     0.6500912443708838
3.2E-5                    0.6479999564004161
3.21E-5                   0.6459086757477385
3.22E-5                   0.6438345715914189
3.23E-5                   0.6417619683840755
3.24E-5                   0.6396893722806558
3.25E-5                   0.6376279215643874
3.26E-5                   0.6355777151505834
3.2699999999999995E-5     0.633527515666933
3.28E-5                   0.6314793293600766
3.29E-5                   0.6294556765654925
3.2999999999999996E-5     0.6274320305047196
3.31E-5                   0.6254083910790219
3.32E-5                   0.6234023611850598
3.3299999999999996E-5     0.6214056736559259
3.34E-5                   0.6194089926278928
3.35E-5                   0.6174123180070079
3.36E-5                   0.6154156496992826
3.37E-5                   0.613418987610694
3.38E-5                   0.6114223316471844
3.39E-5                   0.6094667058812288
3.4E-5                    0.6075207655610857
3.4099999999999995E-5     0.6055748312348587
3.42E-5                   0.6036289028148046
3.43E-5                   0.6016829802131505
3.4399999999999996E-5     0.5997370633420912
3.45E-5                   0.5977911521137916
3.46E-5                   0.5958813528870224
3.4699999999999996E-5     0.5939728786102653
3.48E-5                   0.592064410070663
3.49E-5                   0.590155947186042
3.5E-5                    0.5882474898742004
3.51E-5                   0.5863390380529075
3.52E-5                   0.5844378823898198
3.53E-5                   0.5825899919863881
3.54E-5                   0.5807421069691192
3.5499999999999996E-5     0.5788942272636206
3.56E-5                   0.5770463527954747
3.57E-5                   0.5751984834902393
3.5799999999999996E-5     0.5733506192734489
3.59E-5                   0.5715027600706132
3.6E-5                    0.5696549058072186
3.6099999999999997E-5     0.5678070564087284
3.62E-5                   0.5659592118005815
3.63E-5                   0.564111371908195
3.64E-5                   0.5622635366569627
3.65E-5                   0.5604157059722554
3.6599999999999995E-5     0.5586036829144747
3.67E-5                   0.556838793439882
3.68E-5                   0.555073908661551
3.6899999999999996E-5     0.5533090285143456
3.7E-5                    0.5515441529331099
3.71E-5                   0.549779281852669
3.7199999999999996E-5     0.5480144152078291
3.73E-5                   0.5462495529333764
3.74E-5                   0.544484694964079
3.75E-5                   0.5427198412346862
3.76E-5                   0.5409549916799284
3.77E-5                   0.5391901462345183
3.78E-5                   0.5374253048331495
3.79E-5                   0.5356604674104986
3.7999999999999995E-5     0.5339515232568752
3.81E-5                   0.5322619126651271
3.82E-5                   0.5305723063678545
3.8299999999999996E-5     0.5288827043083026
3.84E-5                   0.5271931064296999
3.85E-5                   0.5255035126752591
3.8599999999999996E-5     0.5238139229881776
3.87E-5                   0.5221243373116364
3.88E-5                   0.520434755588802
3.89E-5                   0.5187451777628254
3.9E-5                    0.5170556037768418
3.9099999999999995E-5     0.5153660335739721
3.92E-5                   0.5136764670973222
3.93E-5                   0.5119903560405694
3.9399999999999995E-5     0.5103643247735807
3.95E-5                   0.508738297072522
3.96E-5                   0.5071122728870111
3.9699999999999996E-5     0.5054862521666534
3.98E-5                   0.5038602348610411
3.99E-5                   0.5022342209197543
3.9999999999999996E-5     0.5006082102923608
4.01E-5                   0.498982202928416
4.02E-5                   0.49735619877746384
4.03E-5                   0.49573019778903565
4.04E-5                   0.49410419991265103
4.0499999999999995E-5     0.4924782050978183
4.06E-5                   0.49085221329403333
4.07E-5                   0.48925866064150475
4.0799999999999996E-5     0.48772138491137734
4.09E-5                   0.4861841124601649
4.1E-5                    0.4846468432448224
4.1099999999999996E-5     0.4831095772222948
4.12E-5                   0.48157231434951736
4.13E-5                   0.4800350545834153
4.14E-5                   0.47849779788090413
4.15E-5                   0.4769605441988892
4.1599999999999995E-5     0.475423293494267
4.17E-5                   0.4738860457239237
4.18E-5                   0.4723488008447362
4.1899999999999995E-5     0.4708115588135724
4.2E-5                    0.4692743195872906
4.21E-5                   0.467772974669406
4.2199999999999996E-5     0.4662887603090986
4.23E-5                   0.46480454871155064
4.24E-5                   0.46332033983854115
4.2499999999999996E-5     0.4618361336518409
4.26E-5                   0.4603519301132127
4.27E-5                   0.45886772918441143
4.28E-5                   0.45738353082718436
4.29E-5                   0.4558993350032703
4.2999999999999995E-5     0.4544151416744012
4.31E-5                   0.45293095080230056
4.32E-5                   0.45144676234868475
4.3299999999999995E-5     0.4499625762752627
4.34E-5                   0.44847839254373534
4.35E-5                   0.44705632496107395
4.3599999999999996E-5     0.4456349975541839
4.37E-5                   0.44421367248769367
4.38E-5                   0.4427923497272012
4.3899999999999996E-5     0.4413710292382984
4.4E-5                    0.43994971098657015
4.41E-5                   0.4385283949375953
4.42E-5                   0.4371070810569468
4.43E-5                   0.43568576931019054
4.4399999999999995E-5     0.4342644596628873
4.45E-5                   0.4328431520805913
4.46E-5                   0.4314218465288505
4.4699999999999996E-5     0.43000054297320744
4.48E-5                   0.4285865397440094
4.49E-5                   0.42718960315890636
4.4999999999999996E-5     0.42579266891988155
4.51E-5                   0.424395736996502
4.52E-5                   0.42299880735832973
4.5299999999999997E-5     0.42160187997492093
4.54E-5                   0.4202049548158257
4.5499999999999995E-5     0.41880803185058896
4.56E-5                   0.41741111104874956
4.57E-5                   0.4160141923798411
4.5799999999999995E-5     0.414617275813392
4.59E-5                   0.4132203613189248
4.6E-5                    0.4118234488659569
4.6099999999999996E-5     0.41057103351052543
4.62E-5                   0.40932160642016346
4.63E-5                   0.4080721807960537
4.6399999999999996E-5     0.40682275661477324
4.65E-5                   0.4055733338528964
4.66E-5                   0.40432391248699384
4.67E-5                   0.4030744924936333
4.68E-5                   0.4018250738493789
4.6899999999999995E-5     0.40057565653079197
4.7E-5                    0.3993262405144305
4.71E-5                   0.3980768257768496
4.7199999999999995E-5     0.3968382928647548
4.73E-5                   0.39560108052721
4.74E-5                   0.3943638701503002
4.7499999999999996E-5     0.39312666170968535
4.76E-5                   0.3918894551810211
4.77E-5                   0.3906522505399596
4.7799999999999996E-5     0.3894150477621491
4.79E-5                   0.38817784682323375
4.8E-5                    0.38694064769885417
4.81E-5                   0.38568950563529364
4.82E-5                   0.3843889018339046
4.8299999999999995E-5     0.38308829943832506
4.84E-5                   0.3817876984259759
4.85E-5                   0.38048709877427495
4.8599999999999995E-5     0.3791865004606371
4.87E-5                   0.3778859034624741
4.88E-5                   0.3765853077571943
4.8899999999999996E-5     0.3753532740025597
4.9E-5                    0.37422029413081254
4.91E-5                   0.3730873156158649
4.9199999999999997E-5     0.37195433843862563
4.93E-5                   0.37082136258000087
4.9399999999999995E-5     0.36968838802089465
4.95E-5                   0.3685543443935366
4.96E-5                   0.36735727632807624
4.9699999999999995E-5     0.3661602098399424
4.98E-5                   0.3649631449089319
4.99E-5                   0.3637660815148392
4.9999999999999996E-5     0.3625690196374556
5.01E-5                   0.3613760822635554
5.02E-5                   0.36018565227766586
5.0299999999999996E-5     0.35899522317063576
5.04E-5                   0.3578047949246073
5.05E-5                   0.35661436752172104
5.06E-5                   0.3555093840818708
5.07E-5                   0.3544174700477649
5.0799999999999995E-5     0.35332555755727624
5.09E-5                   0.35223364659245054
5.1E-5                    0.35109447746967665
5.1099999999999995E-5     0.3499222257553952
5.12E-5                   0.34874997499839683
5.13E-5                   0.34757772518182395
5.1399999999999996E-5     0.3464602309366472
5.15E-5                   0.34536227613699705
5.16E-5                   0.3442643224124932
5.1699999999999996E-5     0.3431663697470803
5.18E-5                   0.3420708894845568
5.1899999999999994E-5     0.34097572908859336
5.2E-5                    0.33988056993196575
5.21E-5                   0.3387847336948649
5.2199999999999995E-5     0.33766996415230643
5.23E-5                   0.3365551953997349
5.24E-5                   0.3354404274224618
5.2499999999999995E-5     0.3343384683203529
5.26E-5                   0.3332935494673378
5.27E-5                   0.33224863182549197
5.2799999999999996E-5     0.33120371537998533
5.29E-5                   0.33014646805789505
5.3E-5                    0.3290644269636296
5.3099999999999996E-5     0.3279823866656373
5.32E-5                   0.32690034714992344
5.3299999999999995E-5     0.3258375522337314
5.34E-5                   0.32479552664704
5.35E-5                   0.3237535020492673
5.3599999999999995E-5     0.32271147842706477
5.37E-5                   0.3216782093379492
5.38E-5                   0.3206500879397363
5.3899999999999996E-5     0.3196219674122759
5.4E-5                    0.31859384774226923
5.41E-5                   0.31755905641037047
5.4199999999999996E-5     0.31652236769711756
5.43E-5                   0.3154856797889393
5.4399999999999994E-5     0.3144489926736177
5.4499999999999997E-5     0.3134524243042815
5.46E-5                   0.31245900146690303
5.4699999999999995E-5     0.3114655795046751
5.48E-5                   0.3104708328270751
5.49E-5                   0.3094599937233913
5.4999999999999995E-5     0.3084491553395052
5.51E-5                   0.3074383176639764
5.52E-5                   0.3064355304834625
5.5299999999999996E-5     0.30546048892288014
5.54E-5                   0.3044854481921468
5.55E-5                   0.30351040827998493
5.5599999999999996E-5     0.30253412450712913
5.57E-5                   0.30155575524675116
5.5799999999999994E-5     0.3005773866559569
5.59E-5                   0.2995990187239011
5.6E-5                    0.29863135757601245
5.6099999999999995E-5     0.2976734826405887
5.62E-5                   0.29671560845681016
5.63E-5                   0.295757735014462
5.6399999999999995E-5     0.2948056403494528
5.65E-5                   0.29385637616488275
5.66E-5                   0.29290711262258573
5.6699999999999996E-5     0.2919578497122214
5.68E-5                   0.29101153516864464
5.69E-5                   0.2900658682047985
5.6999999999999996E-5     0.28912020192869875
5.71E-5                   0.2881934259902545
5.7199999999999994E-5     0.28730112925558055
5.73E-5                   0.2864088330474838
5.74E-5                   0.28550399452724207
5.7499999999999995E-5     0.28455820448655084
5.76E-5                   0.2836124151569873
5.77E-5                   0.28268367324300836
5.7799999999999995E-5     0.28177781346926
5.79E-5                   0.28087195426866884
5.8E-5                    0.27998721261906917
5.8099999999999996E-5     0.2791048138016819
5.82E-5                   0.2781841119689533
5.8299999999999994E-5     0.2772405316420815
5.8399999999999997E-5     0.2763406596322959
5.85E-5                   0.2754725217371585
5.8599999999999995E-5     0.2745950073912579
5.87E-5                   0.2737092669462312
5.88E-5                   0.27280575139451607
5.8899999999999995E-5     0.271894274185021
5.9E-5                    0.27103357295667135
5.91E-5                   0.2701817027535449
5.9199999999999996E-5     0.2692956798033785
5.93E-5                   0.2684120040157266
5.94E-5                   0.2675402402526005
5.9499999999999996E-5     0.26667479909615505
5.96E-5                   0.2658226368576826
5.9699999999999994E-5     0.2649630981226104
5.98E-5                   0.2640955849078716
5.99E-5                   0.26324102430611945
5.9999999999999995E-5     0.2623937971278555
6.01E-5                   0.2615451933426829
6.02E-5                   0.26069623819392423
6.0299999999999995E-5     0.25985291606716515
6.04E-5                   0.2590107468078328
6.05E-5                   0.2581755540889653
6.0599999999999996E-5     0.25734157280089137
6.07E-5                   0.2565108589057955
6.08E-5                   0.25568014541828166
6.0899999999999996E-5     0.2548494323317038
6.1E-5                    0.25402633187996454
6.11E-5                   0.2532086015987711
6.12E-5                   0.2523908717836425
6.13E-5                   0.2515731424281045
6.14E-5                   0.25076195369105125
6.149999999999999E-5      0.2499514733152551
6.159999999999999E-5      0.24914099333345466
6.17E-5                   0.2483330019830514
6.18E-5                   0.24753392213523176
6.19E-5                   0.24673484270460297
6.2E-5                    0.24593576368515635
6.209999999999999E-5      0.245141290341801
6.22E-5                   0.24435083244620012
6.23E-5                   0.24356037493689103
6.24E-5                   0.2427699178080967
6.25E-5                   0.2419875021815195
6.26E-5                   0.24120650385608636
6.269999999999999E-5      0.24042550590084663
6.28E-5                   0.23964611681606235
6.29E-5                   0.23887480105999556
6.3E-5                    0.23810348567612066
6.31E-5                   0.23733217065904794
6.319999999999999E-5      0.2365676076474118
6.33E-5                   0.23581029808115356
6.34E-5                   0.2350529888627975
6.35E-5                   0.23429567998726533
6.36E-5                   0.23353837144947875
6.37E-5                   0.23278106324435896
6.379999999999999E-5      0.23202375536682715
6.39E-5                   0.23126860118666015
6.4E-5                    0.23053018221649785
6.41E-5                   0.22979176357559744
6.42E-5                   0.2290533452592334
6.429999999999999E-5      0.22831492726268043
6.44E-5                   0.22757650958121228
6.45E-5                   0.226838092210103
6.46E-5                   0.22609967514462626
6.47E-5                   0.22537374142422867
6.48E-5                   0.22465206018136766
6.489999999999999E-5      0.22393037924278789
6.5E-5                    0.22320869860409306
6.51E-5                   0.22248701826088693
6.52E-5                   0.22176533820877273
6.53E-5                   0.22104365844335372
6.539999999999999E-5      0.2203284174084358
6.549999999999999E-5      0.21962377909680114
6.56E-5                   0.21891914107165245
6.57E-5                   0.21821450332888914
6.58E-5                   0.21750986586441046
6.59E-5                   0.2168052286741153