% Model:              20230225_JW_4_05.mph
% Version:            COMSOL 5.6.0.401
% Date:               Feb 25 2023, 20:18
% Dimension:          1
% Nodes:              1501
% Expressions:        1
% Description:        点图
% X                       Height
0                         5.822477212140045
1.0E-7                    5.8216237188045605
2.0E-7                    5.8203247501149935
3.0E-7                    5.826927093459702
4.0E-7                    5.849777786928496
5.0E-7                    5.877959549268179
6.0E-7                    5.899852143722809
7.0E-7                    5.920091024841542
8.0E-7                    5.937882727762318
9.0E-7                    5.947589701307071
1.0E-6                    5.960378877479681
1.1E-6                    5.971381016593179
1.2E-6                    5.976806575842761
1.2999999999999998E-6     5.9830851990647025
1.4E-6                    5.985607506233289
1.5E-6                    5.988117368173619
1.6E-6                    5.987764135514247
1.6999999999999998E-6     5.986762774359894
1.8E-6                    5.984337205069526
1.9E-6                    5.98014122569556
2.0E-6                    5.975443211712932
2.1E-6                    5.969148316901082
2.2E-6                    5.962359961992283
2.3E-6                    5.95434614333359
2.4E-6                    5.945610965958124
2.4999999999999998E-6     5.936235230033153
2.5999999999999997E-6     5.926093936366745
2.7E-6                    5.915388347036836
2.8E-6                    5.903840383831158
2.8999999999999998E-6     5.892179660278537
3.0E-6                    5.879681587040952
3.1E-6                    5.867055835659981
3.2E-6                    5.853822068047093
3.2999999999999997E-6     5.840395426901705
3.3999999999999996E-6     5.826532040938344
3.5E-6                    5.812443685332021
3.6E-6                    5.798067941228073
3.6999999999999997E-6     5.783443769423911
3.8E-6                    5.768633665529991
3.9E-6                    5.753582543250597
4.0E-6                    5.738430540060167
4.1E-6                    5.723046212821886
4.2E-6                    5.7076169480876455
4.2999999999999995E-6     5.691961230448151
4.4E-6                    5.6762718948931745
4.5E-6                    5.660346183766515
4.6E-6                    5.644420853426381
4.7E-6                    5.628495896024818
4.8E-6                    5.6125039249861155
4.9E-6                    5.596396259197741
4.9999999999999996E-6     5.580288974483301
5.0999999999999995E-6     5.564182063220664
5.199999999999999E-6      5.54802078382021
5.3E-6                    5.531828041011763
5.4E-6                    5.515635635098872
5.5E-6                    5.499443558921192
5.6E-6                    5.483239980733298
5.7E-6                    5.46703540966949
5.7999999999999995E-6     5.4508311896844965
5.899999999999999E-6      5.434629923400194
6.0E-6                    5.418442403457062
6.1E-6                    5.402255185970819
6.2E-6                    5.386068264183762
6.3E-6                    5.369893892935657
6.4E-6                    5.35373623649379
6.5E-6                    5.337578911527661
6.5999999999999995E-6     5.321421911326752
6.699999999999999E-6      5.305381863908172
6.799999999999999E-6      5.28939374352929
6.9E-6                    5.2734058861488755
7.0E-6                    5.257418285429398
7.1E-6                    5.241453685836232
7.2E-6                    5.225490405233915
7.2999999999999996E-6     5.209527447118821
7.3999999999999995E-6     5.193585066274988
7.499999999999999E-6      5.177713376185431
7.6E-6                    5.161841897897324
7.699999999999999E-6      5.145970626428346
7.8E-6                    5.130259695836786
7.899999999999999E-6      5.114716762957909
8.0E-6                    5.099174228023886
8.1E-6                    5.083632082399375
8.2E-6                    5.067455599978136
8.3E-6                    5.051071824208929
8.4E-6                    5.034688123159941
8.5E-6                    5.018337675265085
8.599999999999999E-6      5.003712996190109
8.7E-6                    4.989088675773824
8.8E-6                    4.974464709424916
8.9E-6                    4.9598460280372505
9.0E-6                    4.945230189175925
9.1E-6                    4.930614598508995
9.2E-6                    4.915225355319162
9.299999999999999E-6      4.8993862116042015
9.4E-6                    4.883547211001607
9.499999999999999E-6      4.86895906064532
9.6E-6                    4.85449553504223
9.7E-6                    4.839912568076743
9.8E-6                    4.82480881514256
9.9E-6                    4.809705213582303
9.999999999999999E-6      4.7947165211667055
1.01E-5                   4.7798605225096855
1.0199999999999999E-5     4.765008852746167
1.03E-5                   4.7504497143618
1.0399999999999999E-5     4.7358907501765115
1.05E-5                   4.721180249050719
1.06E-5                   4.70643397915261
1.07E-5                   4.6920663398349465
1.08E-5                   4.6779480965098115
1.0899999999999999E-5     4.663604793782562
1.1E-5                    4.64892032866387
1.1099999999999999E-5     4.634333883815157
1.12E-5                   4.620158938799366
1.13E-5                   4.605984213306139
1.14E-5                   4.59180229732119
1.15E-5                   4.577620453671039
1.1599999999999999E-5     4.563337568947649
1.17E-5                   4.549026557801317
1.1799999999999999E-5     4.534975123244373
1.19E-5                   4.521114776798498
1.2E-5                    4.50715158744805
1.21E-5                   4.493013646392303
1.22E-5                   4.478928369959736
1.2299999999999999E-5     4.465108423776214
1.24E-5                   4.451288656258112
1.2499999999999999E-5     4.437490459602935
1.26E-5                   4.423693317644108
1.2699999999999999E-5     4.409907810174365
1.28E-5                   4.39612620131539
1.29E-5                   4.382457686867085
1.3E-5                    4.368882059702608
1.31E-5                   4.355295305271994
1.3199999999999999E-5     4.341687163427781
1.33E-5                   4.32810268708519
1.3399999999999999E-5     4.314664803829943
1.35E-5                   4.301227074563416
1.3599999999999999E-5     4.287828970419402
1.37E-5                   4.2744338497548915
1.38E-5                   4.2611028324602485
1.3899999999999999E-5     4.2477959102456
1.4E-5                    4.234543824747287
1.4099999999999999E-5     4.221341927235177
1.42E-5                   4.208156012425542
1.4299999999999999E-5     4.195004400038649
1.44E-5                   4.181866171871145
1.45E-5                   4.168833733767485
1.4599999999999999E-5     4.155801434166228
1.47E-5                   4.142850678000184
1.4799999999999999E-5     4.129908499075942
1.49E-5                   4.116966450959296
1.4999999999999999E-5     4.104024530533211
1.51E-5                   4.091170172656311
1.52E-5                   4.078405056784141
1.53E-5                   4.065640069434686
1.5399999999999998E-5     4.052875207613423
1.55E-5                   4.0401246373110205
1.56E-5                   4.027527735942393
1.57E-5                   4.014930959485686
1.5799999999999998E-5     4.0023343050801135
1.59E-5                   3.9897377698544525
1.6E-5                    3.977241686097134
1.61E-5                   3.96479431444213
1.62E-5                   3.9523470588788463
1.63E-5                   3.9398999166571693
1.64E-5                   3.9274988745424966
1.6499999999999998E-5     3.9152268638980523
1.66E-5                   3.9029549680893303
1.67E-5                   3.890683184471138
1.68E-5                   3.878411510389255
1.69E-5                   3.8662660041818713
1.7E-5                    3.854142475369063
1.71E-5                   3.842019052247414
1.7199999999999998E-5     3.8298957322922202
1.73E-5                   3.8178457249642967
1.74E-5                   3.8058884771031294
1.75E-5                   3.793931334218978
1.76E-5                   3.7819742938646934
1.77E-5                   3.7700220434712355
1.78E-5                   3.758218378683298
1.7899999999999998E-5     3.7464148127633177
1.8E-5                    3.7346113434074204
1.81E-5                   3.7228079683045725
1.82E-5                   3.7111007949099117
1.8299999999999998E-5     3.6994526631590445
1.84E-5                   3.687804627581853
1.85E-5                   3.676156685901322
1.8599999999999998E-5     3.6645401813387664
1.87E-5                   3.6530423490624853
1.88E-5                   3.6415446059768986
1.89E-5                   3.6300469499975967
1.8999999999999998E-5     3.618549379034121
1.91E-5                   3.6071900756583233
1.92E-5                   3.5958657786576125
1.9299999999999998E-5     3.5845415727744534
1.94E-5                   3.5732174558524643
1.95E-5                   3.5619450879223433
1.96E-5                   3.5507544543897516
1.9699999999999998E-5     3.5395639018715803
1.98E-5                   3.5283734284617103
1.99E-5                   3.517183032248844
1.9999999999999998E-5     3.505992711316549
2.01E-5                   3.494802463743302
2.02E-5                   3.483612287602535
2.03E-5                   3.472422180962683
2.0399999999999998E-5     3.461444435639723
2.05E-5                   3.4506295672399294
2.06E-5                   3.4398147803519707
2.07E-5                   3.429000073198744
2.0799999999999997E-5     3.4181854439985626
2.09E-5                   3.4073708909651956
2.1E-5                    3.3965564123079117
2.1099999999999998E-5     3.38574200623151
2.12E-5                   3.374927670936369
2.13E-5                   3.3643628054578882
2.14E-5                   3.35388362994899
2.1499999999999997E-5     3.3434045227108786
2.16E-5                   3.332925482160984
2.17E-5                   3.322446506712981
2.1799999999999998E-5     3.311967594776824
2.19E-5                   3.3014887447587777
2.2E-5                    3.2910099550614555
2.21E-5                   3.2805312240838433
2.2199999999999998E-5     3.2702914039371516
2.23E-5                   3.260071616120874
2.24E-5                   3.2498519020185066
2.2499999999999998E-5     3.2396322600841447
2.26E-5                   3.2294126887683237
2.27E-5                   3.2191931865180563
2.28E-5                   3.208973751776859
2.2899999999999998E-5     3.1987543829847827
2.3E-5                    3.188533067830862
2.31E-5                   3.17829397855385
2.3199999999999998E-5     3.168054939384177
2.33E-5                   3.15781594884573
2.34E-5                   3.147577005459337
2.35E-5                   3.13733810774279
2.3599999999999998E-5     3.1270992542108798
2.37E-5                   3.1168604433754172
2.38E-5                   3.1066216737452734
2.3899999999999998E-5     3.0966984888723617
2.4E-5                    3.0875875924017286
2.41E-5                   3.078476764114867
2.42E-5                   3.0693660032300776
2.4299999999999998E-5     3.0602553089639866
2.44E-5                   3.0511446805315603
2.45E-5                   3.042034117146117
2.4599999999999998E-5     3.0329236180193293
2.4699999999999997E-5     3.023813182361246
2.48E-5                   3.0152463200039246
2.49E-5                   3.007322049703743
2.4999999999999998E-5     2.9993978102062995
2.51E-5                   2.991473599490784
2.52E-5                   2.983549415533694
2.53E-5                   2.975625256308866
2.5399999999999997E-5     2.96541285605282
2.55E-5                   2.9548205075225025
2.56E-5                   2.944228274880316
2.5699999999999998E-5     2.9332824371467603
2.58E-5                   2.9212954756765264
2.59E-5                   2.9093084978420993
2.6E-5                    2.899837816287932
2.6099999999999997E-5     2.8908951104750513
2.62E-5                   2.881878875482527
2.63E-5                   2.8728252899511872
2.6399999999999998E-5     2.8627037168023404
2.65E-5                   2.8530230952646254
2.66E-5                   2.844041057115178
2.67E-5                   2.8346619096824943
2.6799999999999998E-5     2.8248856133752205
2.69E-5                   2.8161083565870726
2.7E-5                    2.8071483014603085
2.7099999999999998E-5     2.797788540445771
2.7199999999999997E-5     2.788924455515762
2.73E-5                   2.779883048616949
2.74E-5                   2.7708085539858134
2.7499999999999998E-5     2.76208598228686
2.76E-5                   2.753095676856835
2.77E-5                   2.7442797876928644
2.7799999999999998E-5     2.735473562417324
2.7899999999999997E-5     2.7266996614744783
2.8E-5                    2.717906353030968
2.81E-5                   2.7092336220077904
2.8199999999999998E-5     2.7005637681870023
2.83E-5                   2.6918909113204545
2.84E-5                   2.6833068555709527
2.8499999999999998E-5     2.6746943538966486
2.8599999999999997E-5     2.6661417082751013
2.87E-5                   2.657637873275516
2.88E-5                   2.6491298341250236
2.8899999999999998E-5     2.6406563543468096
2.9E-5                    2.63222856044919
2.91E-5                   2.6238292048432803
2.9199999999999998E-5     2.615441260907562
2.9299999999999997E-5     2.6070896003419333
2.94E-5                   2.5987577263035324
2.95E-5                   2.5904725563593423
2.9599999999999998E-5     2.5822013955769174
2.97E-5                   2.5739401350433537
2.98E-5                   2.565747906376135
2.99E-5                   2.5575655489171045
2.9999999999999997E-5     2.549383220297997
3.01E-5                   2.5412395332750104
3.02E-5                   2.533142502287179
3.0299999999999998E-5     2.525045501326699
3.04E-5                   2.5169512827080287
3.05E-5                   2.5089436482685676
3.06E-5                   2.5009360424289593
3.07E-5                   2.4929284644869565
3.0799999999999996E-5     2.484974333049287
3.09E-5                   2.4770545764812075
3.1E-5                    2.469134847352578
3.11E-5                   2.4612298542726903
3.12E-5                   2.4533890573151833
3.13E-5                   2.445548287442624
3.14E-5                   2.4377075439986746
3.15E-5                   2.4299351462943743
3.1599999999999996E-5     2.422183842456269
3.17E-5                   2.4144325638959336
3.18E-5                   2.4067083051288893
3.1899999999999996E-5     2.3990359785676656
3.2E-5                    2.3913636773983873
3.21E-5                   2.3836914010073467
3.22E-5                   2.3760963159029656
3.23E-5                   2.3685079684868953
3.24E-5                   2.3609196445714327
3.25E-5                   2.353371756514791
3.26E-5                   2.3458646640834173
3.2699999999999995E-5     2.3383575953441293
3.28E-5                   2.3308565073536065
3.29E-5                   2.323428271551253
3.2999999999999996E-5     2.316000058193924
3.31E-5                   2.308571866719506
3.32E-5                   2.3012209859453097
3.3299999999999996E-5     2.2939111180430682
3.34E-5                   2.28660127215827
3.35E-5                   2.279291447763006
3.36E-5                   2.271981644328818
3.37E-5                   2.2646718613266996
3.38E-5                   2.257362098227102
3.39E-5                   2.2501827826133494
3.4E-5                    2.243034261672154
3.4099999999999995E-5     2.235885761493235
3.42E-5                   2.2287372815775304
3.43E-5                   2.2215888214254784
3.4399999999999996E-5     2.214440380537027
3.45E-5                   2.2072919584116333
3.46E-5                   2.2002867944372837
3.4699999999999996E-5     2.193286883657537
3.48E-5                   2.1862869924277692
3.49E-5                   2.1792871202847155
3.5E-5                    2.172287266764669
3.51E-5                   2.1652874314034825
3.52E-5                   2.1583140389396775
3.53E-5                   2.1515337041981
3.54E-5                   2.1447533880685636
3.5499999999999996E-5     2.13797309013004
3.56E-5                   2.1311928099611155
3.57E-5                   2.1244125471399915
3.5799999999999996E-5     2.1176323012444938
3.59E-5                   2.1108520718520727
3.6E-5                    2.1040718585398057
3.6099999999999997E-5     2.097291660884404
3.62E-5                   2.0905114784622114
3.63E-5                   2.083731310849213
3.64E-5                   2.076951157621034
3.65E-5                   2.070171018352947
3.6599999999999995E-5     2.0635158972940038
3.67E-5                   2.0570253405896044
3.68E-5                   2.0505348011176845
3.6899999999999996E-5     2.044044278510439
3.7E-5                    2.0375537723997508
3.71E-5                   2.03106328241719
3.7199999999999996E-5     2.0245728081940246
3.73E-5                   2.0180823493612143
3.74E-5                   2.011591905549417
3.75E-5                   2.0051014763889947
3.76E-5                   1.9986110615100097
3.77E-5                   1.9921206605422328
3.78E-5                   1.9856302731151432
3.79E-5                   1.9791398988579334
3.7999999999999995E-5     1.9728559636110878
3.81E-5                   1.9666434355756297
3.82E-5                   1.9604309225052734
3.8299999999999996E-5     1.9542184240770297
3.84E-5                   1.948005939967658
3.85E-5                   1.9417934698536696
3.8599999999999996E-5     1.9355810134113325
3.87E-5                   1.9293685703166708
3.88E-5                   1.9231561402454664
3.89E-5                   1.9169437228732658
3.9E-5                    1.9107313178753766
3.9099999999999995E-5     1.9045189249268726
3.92E-5                   1.8983065437025959
3.93E-5                   1.892107407058883
3.9399999999999995E-5     1.886138600121782
3.95E-5                   1.8801698059115104
3.96E-5                   1.8742010241460174
3.9699999999999996E-5     1.8682322545430536
3.98E-5                   1.8622634968201721
3.99E-5                   1.8562947506947347
3.9999999999999996E-5     1.8503260158839105
4.01E-5                   1.8443572921046754
4.02E-5                   1.83838857907382
4.03E-5                   1.8324198765079465
4.04E-5                   1.8264511841234699
4.0499999999999995E-5     1.8204825016366257
4.06E-5                   1.8145138287634632
4.07E-5                   1.8086526674697816
4.0799999999999996E-5     1.8029780235757402
4.09E-5                   1.797303391539326
4.1E-5                    1.7916287711116752
4.1099999999999996E-5     1.7859541620437613
4.12E-5                   1.7802795640863986
4.13E-5                   1.7746049769902417
4.14E-5                   1.768930400505788
4.15E-5                   1.763255834383378
4.1599999999999995E-5     1.7575812783731986
4.17E-5                   1.751906732225284
4.18E-5                   1.7462321956895146
4.1899999999999995E-5     1.740557668515622
4.2E-5                    1.7348831504531879
4.21E-5                   1.7293593299500027
4.2199999999999996E-5     1.7239074290305458
4.23E-5                   1.7184555376597097
4.24E-5                   1.7130036556243042
4.2499999999999996E-5     1.707551782711016
4.26E-5                   1.702099918706407
4.27E-5                   1.6966480633969199
4.28E-5                   1.6911962165688776
4.29E-5                   1.6857443780084824
4.2999999999999995E-5     1.6802925475018209
4.31E-5                   1.6748407248348591
4.32E-5                   1.6693889097934524
4.3299999999999995E-5     1.6639371021633371
4.34E-5                   1.658485301730138
4.35E-5                   1.6532140125957329
4.3599999999999996E-5     1.6479448764289306
4.37E-5                   1.6426757489700656
4.38E-5                   1.637406630015891
4.3899999999999996E-5     1.6321375193630512
4.4E-5                    1.626868416808081
4.41E-5                   1.6215993221474128
4.42E-5                   1.6163302351773707
4.43E-5                   1.6110611556941736
4.4399999999999995E-5     1.605792083493939
4.45E-5                   1.60052301837268
4.46E-5                   1.5952539601263092
4.4699999999999996E-5     1.5899849085506388
4.48E-5                   1.5847780109168466
4.49E-5                   1.579716428010155
4.4999999999999996E-5     1.574654851893777
4.51E-5                   1.5695932824126566
4.52E-5                   1.5645317194116626
4.5299999999999997E-5     1.5594701627355905
4.54E-5                   1.55440861222916
4.5499999999999995E-5     1.5493470677370196
4.56E-5                   1.5442855291037434
4.57E-5                   1.5392239961738359
4.5799999999999995E-5     1.534162468791729
4.59E-5                   1.5291009468017835
4.6E-5                    1.524039430048292
4.6099999999999996E-5     1.5193842771524486
4.62E-5                   1.514737530405798
4.63E-5                   1.5100907900798068
4.6399999999999996E-5     1.505444056025324
4.65E-5                   1.5007973280931333
4.66E-5                   1.4961506061339582
4.67E-5                   1.4915038899984592
4.68E-5                   1.4868571795372334
4.6899999999999995E-5     1.4822104746008196
4.7E-5                    1.4775637750396942
4.71E-5                   1.4729170807042746
4.7199999999999995E-5     1.4682335483447262
4.73E-5                   1.4635455577218934
4.74E-5                   1.458857573860224
4.7499999999999996E-5     1.454169596614489
4.76E-5                   1.4494816258393939
4.77E-5                   1.444793661389582
4.7799999999999996E-5     1.4401057031196351
4.79E-5                   1.4354177508840713
4.8E-5                    1.4307298045373478
4.81E-5                   1.4260606132750053
4.82E-5                   1.4214579325913574
4.8299999999999995E-5     1.4168552561745729
4.84E-5                   1.4122525839120332
4.85E-5                   1.4076499156910787
4.8599999999999995E-5     1.403047251399008
4.87E-5                   1.398444590923079
4.88E-5                   1.3938419341505082
4.8899999999999996E-5     1.3893490988210357
4.9E-5                    1.3850149272263939
4.91E-5                   1.3806807614171135
4.9199999999999997E-5     1.3763466012663244
4.93E-5                   1.3720124466471086
4.9399999999999995E-5     1.3676782974324997
4.95E-5                   1.363342896626447
4.96E-5                   1.35893349178205
4.9699999999999995E-5     1.3545240912906986
4.98E-5                   1.350114695045776
4.99E-5                   1.345705302940629
4.9999999999999996E-5     1.3412959148685657
5.01E-5                   1.3369723354384588
5.02E-5                   1.3327009206729588
5.0299999999999996E-5     1.3284295096763643
5.04E-5                   1.3241581023454827
5.05E-5                   1.3198866985770878
5.06E-5                   1.3156570211425185
5.07E-5                   1.311433730076936
5.0799999999999995E-5     1.3072104441962502
5.09E-5                   1.3029871633918158
5.1E-5                    1.2987877846956077
5.1099999999999995E-5     1.2946051381133254
5.12E-5                   1.2904224941466904
5.13E-5                   1.2862398527046708
5.1399999999999996E-5     1.2821169786823632
5.15E-5                   1.2780154355829487
5.16E-5                   1.2739138974207822
5.1699999999999996E-5     1.2698123640986982
5.18E-5                   1.2657198834027743
5.1899999999999994E-5     1.261628572121655
5.2E-5                    1.2575372635469477
5.21E-5                   1.253448893568032
5.2199999999999995E-5     1.2494424824217323
5.23E-5                   1.245436075251025
5.24E-5                   1.2414296719714961
5.2499999999999995E-5     1.237429705438543
5.26E-5                   1.2334583906331986
5.27E-5                   1.2294870790772625
5.2799999999999996E-5     1.225515770684003
5.29E-5                   1.2215600789751597
5.3E-5                    1.2176357829179743
5.3099999999999996E-5     1.2137114899376527
5.32E-5                   1.2097871999566197
5.3299999999999995E-5     1.2058924600555687
5.34E-5                   1.2020296115289684
5.35E-5                   1.1981667665076021
5.3599999999999995E-5     1.1943039249122709
5.37E-5                   1.1904598968261457
5.38E-5                   1.1866269310842739
5.3899999999999996E-5     1.1827939677452346
5.4E-5                    1.1789610067349607
5.41E-5                   1.1751793518694473
5.4199999999999996E-5     1.1714122954476098
5.43E-5                   1.1676452425836945
5.4399999999999994E-5     1.1638781932061162
5.4499999999999997E-5     1.1601382463375194
5.46E-5                   1.1564004257674034
5.4699999999999995E-5     1.1526626072161479
5.48E-5                   1.1489293342796894
5.49E-5                   1.1452512265357968
5.4999999999999995E-5     1.141573122147327
5.51E-5                   1.137895021048735
5.52E-5                   1.1342251780577874
5.5299999999999996E-5     1.1305837892979032
5.54E-5                   1.1269424026124049
5.55E-5                   1.1233010179354892
5.5599999999999996E-5     1.1196766908399232
5.57E-5                   1.1160809534850993
5.5799999999999994E-5     1.1124852189447894
5.59E-5                   1.1088894871589516
5.6E-5                    1.105321852021043
5.6099999999999995E-5     1.1017798973438613
5.62E-5                   1.0982379449298907
5.63E-5                   1.0946959947169896
5.6399999999999995E-5     1.0911670366659734
5.65E-5                   1.0876444427539191
5.66E-5                   1.0841218510509132
5.6699999999999996E-5     1.0805992615023652
5.68E-5                   1.0771538203798827
5.69E-5                   1.0737253117196726
5.6999999999999996E-5     1.0702968055436577
5.71E-5                   1.066866772591132
5.7199999999999994E-5     1.0634339503000587
5.73E-5                   1.0600011295742504
5.74E-5                   1.0565765313273963
5.7499999999999995E-5     1.0531787767962353
5.76E-5                   1.0497810251469337
5.77E-5                   1.0464024281364488
5.7799999999999995E-5     1.0430495399020279
5.79E-5                   1.0396966527639413
5.8E-5                    1.0363214164594141
5.8099999999999996E-5     1.0329437036713336
5.82E-5                   1.0296129675617307
5.8299999999999994E-5     1.026310291482602
5.8399999999999997E-5     1.0229992626169506
5.85E-5                   1.0196821696559992
5.8599999999999995E-5     1.0163796069812219
5.87E-5                   1.0130897934916305
5.88E-5                   1.0098273600698675
5.8899999999999995E-5     1.0065771906857497
5.9E-5                    1.0033122921655853
5.91E-5                   1.0000450986774265
5.9199999999999996E-5     0.996827606855244
5.93E-5                   0.9936112099948167
5.94E-5                   0.9904003658774027
5.9499999999999996E-5     0.9871945218215332
5.96E-5                   0.9839991775089924
5.9699999999999994E-5     0.9808191539681357
5.98E-5                   0.9776556920968389
5.99E-5                   0.9744960354986236
5.9999999999999995E-5     0.9713385343622778
6.01E-5                   0.9682022465999341
6.02E-5                   0.9650713801259058
6.0299999999999995E-5     0.9619575095122053
6.04E-5                   0.9588460091094467
6.05E-5                   0.9557468055017335
6.0599999999999996E-5     0.952656986838832
6.07E-5                   0.9495924866116845
6.08E-5                   0.9465279880021537
6.0899999999999996E-5     0.9434634909716206
6.1E-5                    0.9404190062483296
6.11E-5                   0.9373886386793305
6.12E-5                   0.9343582725115253
6.13E-5                   0.9313279077080814
6.14E-5                   0.9283322954013687
6.149999999999999E-5      0.9253404463245518
6.159999999999999E-5      0.9223485987129434
6.17E-5                   0.9193641042788931
6.18E-5                   0.9164059398907531
6.19E-5                   0.913447776841387
6.2E-5                    0.9104896150964078
6.209999999999999E-5      0.9075506147636523
6.22E-5                   0.9046283203374481
6.23E-5                   0.9017060272632974
6.24E-5                   0.8987837355079373
6.25E-5                   0.895890640220765
6.26E-5                   0.8930026906945477
6.269999999999999E-5      0.8901147424207858
6.28E-5                   0.887232399332948
6.29E-5                   0.8843781833266291
6.3E-5                    0.8815239685629559
6.31E-5                   0.8786697550110113
6.319999999999999E-5      0.8758417266047338
6.33E-5                   0.8730418280716524
6.34E-5                   0.8702419307452522
6.35E-5                   0.8674420345963038
6.36E-5                   0.8646421395955736
6.37E-5                   0.861842245713823
6.379999999999999E-5      0.85904235292181
6.39E-5                   0.8562501408103983
6.4E-5                    0.853517611727716
6.41E-5                   0.8507850837873029
6.42E-5                   0.8480525569620283
6.429999999999999E-5      0.8453200312247587
6.44E-5                   0.8425875065483546
6.45E-5                   0.8398549829056752
6.46E-5                   0.8371224602695744
6.47E-5                   0.8344372691219012
6.48E-5                   0.8317682015072377
6.489999999999999E-5      0.829099134956751
6.5E-5                    0.8264300694451147
6.51E-5                   0.8237610049470002
6.52E-5                   0.8210919414370749
6.53E-5                   0.8184228788900034
6.539999999999999E-5      0.8157773013502814
6.549999999999999E-5      0.8131703968925851
6.56E-5                   0.8105634934135604
6.57E-5                   0.8079565908896872
6.58E-5                   0.8053496892974422
6.59E-5                   0.8027427886132997
6.599999999999999E-5      0.8001358888137311
6.61E-5                   0.7975295948324075
6.62E-5                   0.794984856043281
6.63E-5                   0.7924401181923214
6.64E-5                   0.7898953812575775
6.65E-5                   0.7873506452170959
6.659999999999999E-5      0.78480591004892
6.67E-5                   0.7822611757310898