% Model:              20230225_JW_4_05.mph
% Version:            COMSOL 5.6.0.401
% Date:               Feb 25 2023, 20:18
% Dimension:          1
% Nodes:              1501
% Expressions:        1
% Description:        点图
% X                       Height
0                         8.757665516203316
1.0E-7                    8.757789834977821
2.0E-7                    8.762782108421087
3.0E-7                    8.781768004063691
4.0E-7                    8.808302817529896
5.0E-7                    8.82657044680022
6.0E-7                    8.840283601047934
7.0E-7                    8.856826660559605
8.0E-7                    8.86887867540093
9.0E-7                    8.874839304409752
1.0E-6                    8.880466266803339
1.1E-6                    8.88503252639053
1.2E-6                    8.885919961633084
1.2999999999999998E-6     8.88462088326803
1.4E-6                    8.882189853954555
1.5E-6                    8.877801992261006
1.6E-6                    8.871391095419986
1.6999999999999998E-6     8.86392365794641
1.8E-6                    8.854576190647148
1.9E-6                    8.844412722830924
2.0E-6                    8.832594434957548
2.1E-6                    8.820063197132187
2.2E-6                    8.806197205893524
2.3E-6                    8.791498759076745
2.4E-6                    8.776010611850765
2.4999999999999998E-6     8.759655146353735
2.5999999999999997E-6     8.742672121711449
2.7E-6                    8.72504095398844
2.8E-6                    8.706480265571475
2.8999999999999998E-6     8.687802936758482
3.0E-6                    8.668330655063812
3.1E-6                    8.648708414527206
3.2E-6                    8.628371193699117
3.2999999999999997E-6     8.607856174110683
3.3999999999999996E-6     8.586938219869825
3.5E-6                    8.565763082865558
3.6E-6                    8.544259313725355
3.6999999999999997E-6     8.522514742694474
3.8E-6                    8.500590010280392
3.9E-6                    8.478408930151263
4.0E-6                    8.456120578512838
4.1E-6                    8.433604046869975
4.2E-6                    8.411043540099593
4.2999999999999995E-6     8.388222870303164
4.4E-6                    8.365371482746903
4.5E-6                    8.342318378733012
4.6E-6                    8.319265798575506
4.7E-6                    8.296213730173582
4.8E-6                    8.273087675712201
4.9E-6                    8.249833753314835
4.9999999999999996E-6     8.226580250208988
5.0999999999999995E-6     8.203327155038298
5.199999999999999E-6      8.18006870749223
5.3E-6                    8.156807372194947
5.4E-6                    8.133546494811043
5.5E-6                    8.110286064501471
5.6E-6                    8.086972640757873
5.7E-6                    8.063653495232423
5.7999999999999995E-6     8.04033470993354
5.899999999999999E-6      8.017032233603151
6.0E-6                    7.993812251029235
6.1E-6                    7.9705926963445455
6.2E-6                    7.947373559475354
6.3E-6                    7.924158805562152
6.4E-6                    7.900949696161746
6.5E-6                    7.877740880022028
6.5999999999999995E-6     7.854532347654034
6.699999999999999E-6      7.831536589150307
6.799999999999999E-6      7.8086353571354525
6.9E-6                    7.785734565536893
7.0E-6                    7.762834204325512
7.1E-6                    7.739765711785788
7.2E-6                    7.716690071737329
7.2999999999999996E-6     7.693614617804314
7.3999999999999995E-6     7.670680365932205
7.499999999999999E-6      7.648236755624405
7.6E-6                    7.625793646672564
7.699999999999999E-6      7.6033510307678736
7.8E-6                    7.580574101537435
7.899999999999999E-6      7.557446943063316
8.0E-6                    7.5343199607315805
8.1E-6                    7.511193141839808
8.2E-6                    7.4884410870879625
8.3E-6                    7.465811577302773
8.4E-6                    7.443182193963073
8.5E-6                    7.420584913105273
8.599999999999999E-6      7.399651061746619
8.7E-6                    7.378717919399962
8.8E-6                    7.357785472957837
8.9E-6                    7.335846259482523
9.0E-6                    7.313382351068668
9.1E-6                    7.290918387461845
9.2E-6                    7.26899500108867
9.299999999999999E-6      7.247386361384576
9.4E-6                    7.22577814055151
9.499999999999999E-6      7.204457135120938
9.6E-6                    7.183164890592834
9.7E-6                    7.161711745945502
9.8E-6                    7.1395577293804084
9.9E-6                    7.117403868261656
9.999999999999999E-6      7.095839264079354
1.01E-5                   7.074954999580697
1.0199999999999999E-5     7.054063006471385
1.03E-5                   7.032588508223222
1.0399999999999999E-5     7.0111141052761345
1.05E-5                   6.9899124476769545
1.06E-5                   6.968775718169709
1.07E-5                   6.94793533650227
1.08E-5                   6.927290106132148
1.0899999999999999E-5     6.906430533201306
1.1E-5                    6.885246102114269
1.1099999999999999E-5     6.864173791687174
1.12E-5                   6.843572021220968
1.13E-5                   6.822970487608734
1.14E-5                   6.802348266550568
1.15E-5                   6.78172597276001
1.1599999999999999E-5     6.761080794491182
1.17E-5                   6.740429381130511
1.1799999999999999E-5     6.719973118073848
1.19E-5                   6.699660509812762
1.2E-5                    6.679333019953858
1.21E-5                   6.658980166152671
1.22E-5                   6.6386494647971075
1.2299999999999999E-5     6.6184296864281835
1.24E-5                   6.598210076426889
1.2499999999999999E-5     6.578188197962503
1.26E-5                   6.558174791402542
1.2699999999999999E-5     6.538153745434244
1.28E-5                   6.518130325650327
1.29E-5                   6.498219441093408
1.3E-5                    6.478401003712898
1.31E-5                   6.4586123887782065
1.3199999999999999E-5     6.438880540350941
1.33E-5                   6.4191614396367545
1.3399999999999999E-5     6.399520770907588
1.35E-5                   6.3798802737268385
1.3599999999999999E-5     6.360396380327895
1.37E-5                   6.3409239089449505
1.38E-5                   6.32149485621018
1.3899999999999999E-5     6.302082160920155
1.4E-5                    6.2827511530115645
1.4099999999999999E-5     6.263494914221861
1.42E-5                   6.244267725975296
1.4299999999999999E-5     6.225102982126447
1.44E-5                   6.205952009805043
1.45E-5                   6.186909775659967
1.4599999999999999E-5     6.167867704338611
1.47E-5                   6.148971832462127
1.4799999999999999E-5     6.130091265671051
1.49E-5                   6.1112108525175985
1.4999999999999999E-5     6.092330588276407
1.51E-5                   6.073561338432443
1.52E-5                   6.054905234285613
1.53E-5                   6.036249281256243
1.5399999999999998E-5     6.017593474852871
1.55E-5                   5.998958038717283
1.56E-5                   5.980541953818067
1.57E-5                   5.962126016020394
1.5799999999999998E-5     5.943710220984197
1.59E-5                   5.925294564347966
1.6E-5                    5.907020307429614
1.61E-5                   5.88881460894763
1.62E-5                   5.870609049400751
1.63E-5                   5.8524036246380335
1.64E-5                   5.834259915512756
1.6499999999999998E-5     5.816288973869289
1.66E-5                   5.798318164619096
1.67E-5                   5.780347483755871
1.68E-5                   5.762376927254829
1.69E-5                   5.7445918996080145
1.7E-5                    5.7268391692340375
1.71E-5                   5.70908656827105
1.7199999999999998E-5     5.691334092877092
1.73E-5                   5.673677430501026
1.74E-5                   5.656141992407153
1.75E-5                   5.63860667224041
1.76E-5                   5.621071466312024
1.77E-5                   5.603543546911172
1.78E-5                   5.586242944425993
1.7899999999999998E-5     5.568942467449625
1.8E-5                    5.551642112435617
1.81E-5                   5.534341875822723
1.82E-5                   5.517155780195759
1.8299999999999998E-5     5.500039725293557
1.84E-5                   5.482923773713179
1.85E-5                   5.465807922053018
1.8599999999999998E-5     5.448748758256612
1.87E-5                   5.4319037935437615
1.88E-5                   5.4150589480907225
1.89E-5                   5.398214218653005
1.8999999999999998E-5     5.3813696019735
1.91E-5                   5.364632279199141
1.92E-5                   5.347922133626216
1.9299999999999998E-5     5.331212079114194
1.94E-5                   5.314502112416249
1.95E-5                   5.29791007452523
1.96E-5                   5.28150438451265
1.9699999999999998E-5     5.265098796524943
1.98E-5                   5.248693307677096
1.99E-5                   5.232287915073578
1.9999999999999998E-5     5.215882615808438
2.01E-5                   5.199477406965373
2.02E-5                   5.183072285617854
2.03E-5                   5.166667248829178
2.0399999999999998E-5     5.150530367391865
2.05E-5                   5.134599151714159
2.06E-5                   5.118668030809358
2.07E-5                   5.102737001955116
2.0799999999999997E-5     5.0868060624196785
2.09E-5                   5.070875209461949
2.1E-5                    5.054944440331575
2.1099999999999998E-5     5.039013752269031
2.12E-5                   5.023083142505701
2.13E-5                   5.007532883338025
2.14E-5                   4.9921132612188925
2.1499999999999997E-5     4.97669372560787
2.16E-5                   4.961274274083228
2.17E-5                   4.945854904215536
2.1799999999999998E-5     4.930435613567723
2.19E-5                   4.915016399695143
2.2E-5                    4.899597260145652
2.21E-5                   4.884178192459656
2.2199999999999998E-5     4.869014454886805
2.23E-5                   4.85387213570816
2.24E-5                   4.838729904658874
2.2499999999999998E-5     4.823587759305883
2.26E-5                   4.808445697208611
2.27E-5                   4.793303715919031
2.28E-5                   4.778161812981728
2.2899999999999998E-5     4.7630199859339735
2.3E-5                    4.7478851063553575
2.31E-5                   4.732811246419781
2.3199999999999998E-5     4.717737439736114
2.33E-5                   4.702663684203811
2.34E-5                   4.687589977716503
2.35E-5                   4.672516318162049
2.3599999999999998E-5     4.65744270342258
2.37E-5                   4.642369131374571
2.38E-5                   4.6272955998888765
2.3899999999999998E-5     4.6127493811839475
2.4E-5                    4.59956047964126
2.41E-5                   4.586371687090497
2.42E-5                   4.573183002142617
2.4299999999999998E-5     4.55999442340474
2.44E-5                   4.546805949480167
2.45E-5                   4.533617578968411
2.4599999999999998E-5     4.520429310465213
2.4699999999999997E-5     4.5072411425625765
2.48E-5                   4.49414652980271
2.49E-5                   4.481162450930215
2.4999999999999998E-5     4.468178397771684
2.51E-5                   4.4551943660378255
2.52E-5                   4.442210351430388
2.53E-5                   4.429226349642283
2.5399999999999997E-5     4.413431056037597
2.55E-5                   4.397168924551875
2.56E-5                   4.380906891060189
2.5699999999999998E-5     4.364932667678208
2.58E-5                   4.349805330102515
2.59E-5                   4.334677957338011
2.6E-5                    4.321328049579062
2.6099999999999997E-5     4.308351147972736
2.62E-5                   4.294107588876272
2.63E-5                   4.279217562703065
2.6399999999999998E-5     4.264977461198827
2.65E-5                   4.251455118526064
2.66E-5                   4.238628000056741
2.67E-5                   4.224287016706506
2.6799999999999998E-5     4.210303716917889
2.69E-5                   4.197319080864699
2.7E-5                    4.183812438418996
2.7099999999999998E-5     4.170382279864909
2.7199999999999997E-5     4.157070608267784
2.73E-5                   4.143667944173735
2.74E-5                   4.130707730388447
2.7499999999999998E-5     4.117413866733294
2.76E-5                   4.104244420637062
2.77E-5                   4.09125206626042
2.7799999999999998E-5     4.078212718357002
2.7899999999999997E-5     4.0652378597271275
2.8E-5                    4.0522584734899105
2.81E-5                   4.03943480334799
2.8199999999999998E-5     4.026575732586723
2.83E-5                   4.013778168002805
2.84E-5                   4.001026638722213
2.8499999999999998E-5     3.988316812273854
2.8599999999999997E-5     3.975640448038185
2.87E-5                   3.9630251033012382
2.88E-5                   3.950446483172415
2.8899999999999998E-5     3.937902682616569
2.9E-5                    3.92540491647801
2.91E-5                   3.912959189933377
2.9199999999999998E-5     3.900534246840262
2.9299999999999997E-5     3.8881649848945705
2.94E-5                   3.875818603854883
2.95E-5                   3.863526247289574
2.9599999999999998E-5     3.851268955492647
2.97E-5                   3.8390364175537424
2.98E-5                   3.826888911249979
2.99E-5                   3.8147535658008462
2.9999999999999997E-5     3.802618256856559
3.01E-5                   3.7905419302819645
3.02E-5                   3.77853681789769
3.0299999999999998E-5     3.766531739750865
3.04E-5                   3.7545305578280717
3.05E-5                   3.7426508659404627
3.06E-5                   3.7307712090959986
3.07E-5                   3.7188915862106025
3.0799999999999996E-5     3.7070909374758925
3.09E-5                   3.695341078927283
3.1E-5                    3.683591252903855
3.11E-5                   3.6718626866259902
3.12E-5                   3.660226760419143
3.13E-5                   3.6485908663134
3.14E-5                   3.636955003293269
3.15E-5                   3.6254202603024077
3.1599999999999996E-5     3.613916722023267
3.17E-5                   3.602413214331702
3.18E-5                   3.590948675283173
3.1899999999999996E-5     3.5795590391569445
3.2E-5                    3.568169432892517
3.21E-5                   3.556779855534684
3.22E-5                   3.5455020961493995
3.23E-5                   3.53423409167572
3.24E-5                   3.5229661154409198
3.25E-5                   3.5117595371447528
3.26E-5                   3.5006149030148954
3.2699999999999995E-5     3.489470297232142
3.28E-5                   3.4783337775380496
3.29E-5                   3.467295798080887
3.2999999999999996E-5     3.4562578449735457
3.31E-5                   3.4452199173541125
3.32E-5                   3.4343023117775116
3.3299999999999996E-5     3.42344853315441
3.34E-5                   3.4125947812475492
3.35E-5                   3.401741055231089
3.36E-5                   3.390887354278052
3.37E-5                   3.3800336775603346
3.38E-5                   3.3691800242487218
3.39E-5                   3.358507814103768
3.4E-5                    3.347878434194959
3.4099999999999995E-5     3.3372490791434917
3.42E-5                   3.3266197481769155
3.43E-5                   3.315990440521756
3.4399999999999996E-5     3.3053611554035305
3.45E-5                   3.2947318920467477
3.46E-5                   3.2843214541051045
3.4699999999999996E-5     3.2739190347924456
3.48E-5                   3.263516639519422
3.49E-5                   3.253114267562216
3.5E-5                    3.2427119181960946
3.51E-5                   3.232309590695422
3.52E-5                   3.2219459612042587
3.53E-5                   3.2118648931252682
3.54E-5                   3.2017838475198612
3.5499999999999996E-5     3.1917028237340994
3.56E-5                   3.1816218211132528
3.57E-5                   3.171540839001812
3.5799999999999996E-5     3.16145987674349
3.59E-5                   3.151378933681233
3.6E-5                    3.141298009157224
3.6099999999999997E-5     3.1312171025128954
3.62E-5                   3.1211362130889273
3.63E-5                   3.111055340225265
3.64E-5                   3.1009744832611186
3.65E-5                   3.0908936415349713
3.6599999999999995E-5     3.080995525793953
3.67E-5                   3.0713379395365608
3.68E-5                   3.061680375201453
3.6899999999999996E-5     3.052022832216431
3.7E-5                    3.042365310008651
3.71E-5                   3.032707808004629
3.7199999999999996E-5     3.0230503256302503
3.73E-5                   3.0133928623107686
3.74E-5                   3.0037354174708186
3.75E-5                   2.9940779905344157
3.76E-5                   2.984420580924964
3.77E-5                   2.9747631880652654
3.78E-5                   2.965105811377519
3.79E-5                   2.9554484502833294
3.7999999999999995E-5     2.946094341197038
3.81E-5                   2.9368451242984457
3.82E-5                   2.927595925409042
3.8299999999999996E-5     2.9183467440259405
3.84E-5                   2.9090975796457443
3.85E-5                   2.899848431764555
3.8599999999999996E-5     2.8905992998779735
3.87E-5                   2.881350183481101
3.88E-5                   2.8721010820685504
3.89E-5                   2.862851995134447
3.9E-5                    2.8536029221724326
3.9099999999999995E-5     2.844353862675673
3.92E-5                   2.83510481613686
3.93E-5                   2.8258760176964692
3.9399999999999995E-5     2.8169994261990485
3.95E-5                   2.8081228511136858
3.96E-5                   2.7992462920021244
3.9699999999999996E-5     2.7903697484257055
3.98E-5                   2.7814932199453573
3.99E-5                   2.7726167061216165
3.9999999999999996E-5     2.7637402065146173
4.01E-5                   2.7548637206841016
4.02E-5                   2.7459872481894227
4.03E-5                   2.7371107885895483
4.04E-5                   2.728234341443058
4.0499999999999995E-5     2.7193579063081597
4.06E-5                   2.710481482742681
4.07E-5                   2.7017546887761648
4.0799999999999996E-5     2.693287481997573
4.09E-5                   2.684820289271561
4.1E-5                    2.676353110208452
4.1099999999999996E-5     2.667885944418236
4.12E-5                   2.659418791510578
4.13E-5                   2.6509516510948163
4.14E-5                   2.6424845227799696
4.15E-5                   2.6340174061747357
4.1599999999999995E-5     2.625550300887499
4.17E-5                   2.6170832065263285
4.18E-5                   2.6086161226989857
4.1899999999999995E-5     2.6001490490129244
4.2E-5                    2.5916819850752932
4.21E-5                   2.583457138765756
4.2199999999999996E-5     2.575347888835112
4.23E-5                   2.567238651638656
4.24E-5                   2.559129426844267
4.2499999999999996E-5     2.551020214119568
4.26E-5                   2.542911013131926
4.27E-5                   2.534801823548459
4.28E-5                   2.5266926450360345
4.29E-5                   2.518583477261272
4.2999999999999995E-5     2.51047431989055
4.31E-5                   2.5023651725899962
4.32E-5                   2.4942560350255074
4.3299999999999995E-5     2.486146906862737
4.34E-5                   2.4780377877671023
4.35E-5                   2.470153499120324
4.3599999999999996E-5     2.4622718907706647
4.37E-5                   2.454390291929898
4.38E-5                   2.4465087022819407
4.3899999999999996E-5     2.4386271215104895
4.4E-5                    2.4307455492990218
4.41E-5                   2.4228639853307987
4.42E-5                   2.414982429288871
4.43E-5                   2.4071008808560705
4.4399999999999995E-5     2.399219339715025
4.45E-5                   2.3913378055481536
4.46E-5                   2.3834562780376674
4.4699999999999996E-5     2.375574756865577
4.48E-5                   2.367818165741903
4.49E-5                   2.360353669354045
4.4999999999999996E-5     2.3528891817263298
4.51E-5                   2.345424702626695
4.52E-5                   2.337960231822933
4.5299999999999997E-5     2.3304957690826904
4.54E-5                   2.3230313141734693
4.5499999999999995E-5     2.3155668668626297
4.56E-5                   2.308102426917389
4.57E-5                   2.3006379941048234
4.5799999999999995E-5     2.2931735681918712
4.59E-5                   2.285709148945333
4.6E-5                    2.2782447361318723
4.6099999999999996E-5     2.271235976863657
4.62E-5                   2.2642366443833857
4.63E-5                   2.25723732005165
4.6399999999999996E-5     2.2502380036142835
4.65E-5                   2.2432386948169762
4.66E-5                   2.236239393405275
4.67E-5                   2.2292400991245866
4.68E-5                   2.222240811720177
4.6899999999999995E-5     2.215241530937177
4.7E-5                    2.2082422565205766
4.71E-5                   2.2012429882152342
4.7199999999999995E-5     2.194208971944148
4.73E-5                   2.1871707522606383
4.74E-5                   2.1801325409698866
4.7499999999999996E-5     2.1730943378552543
4.76E-5                   2.1660561426999734
4.77E-5                   2.159017955287154
4.7799999999999996E-5     2.151979775399779
4.79E-5                   2.1449416028207073
4.8E-5                    2.1379034373326786
4.81E-5                   2.1309264242716863
4.82E-5                   2.1241663059926292
4.8299999999999995E-5     2.1174061924732177
4.84E-5                   2.1106460835339047
4.85E-5                   2.1038859789950655
4.8599999999999995E-5     2.0971258786769877
4.87E-5                   2.0903657823998794
4.88E-5                   2.0836056899838655
4.8899999999999996E-5     2.0769216891058924
4.9E-5                    2.070347622413704
4.91E-5                   2.063773563719474
4.9199999999999997E-5     2.0571995128223177
4.93E-5                   2.0506254695212434
4.9399999999999995E-5     2.044051433615158
4.95E-5                   2.0374780786713202
4.96E-5                   2.030944403118505
4.9699999999999995E-5     2.024410731545578
4.98E-5                   2.0178770637910044
4.99E-5                   2.0113433996931787
4.9999999999999996E-5     2.0048097390904265
5.01E-5                   1.9983834111816858
5.02E-5                   1.9920223345782615
5.0299999999999996E-5     1.9856612640234805
5.04E-5                   1.9793001993462567
5.05E-5                   1.9729391403754295
5.06E-5                   1.96657718202597
5.07E-5                   1.9602150904734983
5.0799999999999995E-5     1.953853003945091
5.09E-5                   1.9474909222802455
5.1E-5                    1.9412308478348546
5.1099999999999995E-5     1.9350421831902227
5.12E-5                   1.92885352215921
5.13E-5                   1.922664864591195
5.1399999999999996E-5     1.9164975263619202
5.15E-5                   1.9103378004976523
5.16E-5                   1.9041780809814668
5.1699999999999996E-5     1.8980183676634932
5.18E-5                   1.891917594167731
5.1899999999999994E-5     1.885824421363922
5.2E-5                    1.8797312507803703
5.21E-5                   1.8736424353553773
5.2199999999999995E-5     1.8676751366726998
5.23E-5                   1.8617078439983967
5.24E-5                   1.8557405571942458
5.2499999999999995E-5     1.8497756995490588
5.26E-5                   1.8438216383717374
5.27E-5                   1.8378675800649005
5.2799999999999996E-5     1.8319135244986229
5.29E-5                   1.8259997663206178
5.3E-5                    1.8201670282528661
5.3099999999999996E-5     1.8143342946245777
5.32E-5                   1.8085015653105292
5.3299999999999995E-5     1.8026918183791338
5.34E-5                   1.7969068739717522
5.35E-5                   1.7911219333124608
5.3599999999999995E-5     1.7853369962780679
5.37E-5                   1.7795962610394154
5.38E-5                   1.7738815161521506
5.3899999999999996E-5     1.768166774423601
5.4E-5                    1.7624520357392286
5.41E-5                   1.7568070119749386
5.4199999999999996E-5     1.7511818240240309
5.43E-5                   1.745556640202963
5.4399999999999994E-5     1.739931460396317
5.4499999999999997E-5     1.7343425339993364
5.46E-5                   1.7287564516146838
5.4699999999999995E-5     1.723170371671432
5.48E-5                   1.717592047522554
5.49E-5                   1.7121078577960471
5.4999999999999995E-5     1.7066236723178925
5.51E-5                   1.7011394909814272
5.52E-5                   1.6956630028159576
5.5299999999999996E-5     1.6902130192271265
5.54E-5                   1.6847630376451228
5.55E-5                   1.6793130579702338
5.5599999999999996E-5     1.673899426848441
5.57E-5                   1.668546720521848
5.5799999999999994E-5     1.6631940184758993
5.59E-5                   1.657841320613888
5.6E-5                    1.6525089696472537
5.6099999999999995E-5     1.6471952142272177
5.62E-5                   1.6418814601963887
5.63E-5                   1.6365677074586238
5.6399999999999995E-5     1.6313105630124456
5.65E-5                   1.626081145932425
5.66E-5                   1.6208517331693737
5.6699999999999996E-5     1.6156223246384513
5.68E-5                   1.6104644827939472
5.69E-5                   1.605322347127383
5.6999999999999996E-5     1.6001802127114195
5.71E-5                   1.5950346194815186
5.7199999999999994E-5     1.589882713329703
5.73E-5                   1.5847308101911388
5.74E-5                   1.5796058880058912
5.7499999999999995E-5     1.5745690516829356
5.76E-5                   1.5695322183808786
5.77E-5                   1.5644887598725263
5.7799999999999995E-5     1.5594364061438815
5.79E-5                   1.5543840534697482
5.8E-5                    1.5493667873061985
5.8099999999999996E-5     1.5443534168769792
5.82E-5                   1.5393883795518222
5.8299999999999994E-5     1.5344522109991416
5.8399999999999997E-5     1.5295010143435657
5.85E-5                   1.5245389088901058
5.8599999999999995E-5     1.5196127302268512
5.87E-5                   1.514718071403299
5.88E-5                   1.5098375987625519
5.8899999999999995E-5     1.5049634810062846
5.9E-5                    1.5001008588677882
5.91E-5                   1.4952405512312232
5.9199999999999996E-5     1.490419542476726
5.93E-5                   1.4856038395338464
5.94E-5                   1.480815067517739
5.9499999999999996E-5     1.476031892589576
5.96E-5                   1.4712604681829329
5.9699999999999994E-5     1.4665071093356492
5.98E-5                   1.4617732811871562
5.99E-5                   1.4570558162308695
5.9999999999999995E-5     1.4523476153913695
6.01E-5                   1.447660496563081
6.02E-5                   1.442978766398128
6.0299999999999995E-5     1.4383249083466447
6.04E-5                   1.4336755566869555
6.05E-5                   1.4290512687044918
6.0599999999999996E-5     1.4244384328135797
6.07E-5                   1.4198564917519543
6.08E-5                   1.4152745526328516
6.0899999999999996E-5     1.4106926153959698
6.1E-5                    1.406144151678151
6.11E-5                   1.4016193007921374
6.12E-5                   1.3970944515519907
6.13E-5                   1.3925696038996762
6.14E-5                   1.388092341769766
6.149999999999999E-5      1.3836202323582212
6.159999999999999E-5      1.3791481247640096
6.17E-5                   1.3746876221262891
6.18E-5                   1.3702686754105993
6.19E-5                   1.3658497302346795
6.2E-5                    1.361430786544446
6.209999999999999E-5      1.357039570404209
6.22E-5                   1.3526725286364014
6.23E-5                   1.348305488569509
6.24E-5                   1.3439384501513978
6.25E-5                   1.3396152280202107
6.26E-5                   1.3352997279525443
6.269999999999999E-5      1.3309842293129561
6.28E-5                   1.3266771983660715
6.29E-5                   1.3224126606541324
6.3E-5                    1.3181481245073312
6.31E-5                   1.3138835898771397
6.319999999999999E-5      1.3096577554495865
6.33E-5                   1.3054734953896465
6.34E-5                   1.3012892367590823
6.35E-5                   1.2971049795120249
6.36E-5                   1.2929207236025941
6.37E-5                   1.288736468984904
6.379999999999999E-5      1.2845522156130578
6.39E-5                   1.2803794687925105
6.4E-5                    1.2762961367709624
6.41E-5                   1.272212806178868
6.42E-5                   1.268129476973631
6.429999999999999E-5      1.2640461491126471
6.44E-5                   1.2599628225533008
6.45E-5                   1.2558794972529732
6.46E-5                   1.2517961731690357
6.47E-5                   1.2477829278798416
6.48E-5                   1.2437935548169827
6.489999999999999E-5      1.2398041830241127
6.5E-5                    1.235814812461506
6.51E-5                   1.2318254430894333
6.52E-5                   1.2278360748681563
6.53E-5                   1.223846707757931
6.539999999999999E-5      1.2198928482199278
6.549999999999999E-5      1.21599745976795
6.56E-5                   1.2121020725336942
6.57E-5                   1.2082066864802057
6.58E-5                   1.2043113015705242
6.59E-5                   1.2004159177676823
6.599999999999999E-5      1.1965205350347075
6.61E-5                   1.1926260427734061
6.62E-5                   1.1888220518365724
6.63E-5                   1.1850180620258388
6.64E-5                   1.181214073306792
6.65E-5                   1.1774100856450138
6.659999999999999E-5      1.173606099006081
6.67E-5                   1.1698021133555643
6.68E-5                   1.1659981286590293
6.69E-5                   1.1622789419995805