% Model:              20230225_JW_4_10.mph
% Version:            COMSOL 5.6.0.401
% Date:               Feb 25 2023, 20:25
% Dimension:          1
% Nodes:              1501
% Expressions:        1
% Description:        点图
% X                       Height
0                         18.547871842809606
1.0E-7                    18.551916266190872
2.0E-7                    18.551536504900074
3.0E-7                    18.52836069688745
4.0E-7                    18.497429870131892
5.0E-7                    18.46926931592137
6.0E-7                    18.43738031812958
7.0E-7                    18.406416079409876
8.0E-7                    18.371651030367694
9.0E-7                    18.330686831240556
1.0E-6                    18.285168250716655
1.1E-6                    18.238377763368142
1.2E-6                    18.188903762717537
1.2999999999999998E-6     18.136838469289884
1.4E-6                    18.083754650855784
1.5E-6                    18.028394883061114
1.6E-6                    17.971029238105576
1.6999999999999998E-6     17.91285624329132
1.8E-6                    17.853676745109997
1.9E-6                    17.79330877214704
2.0E-6                    17.731897766650484
2.1E-6                    17.66988465422406
2.2E-6                    17.607198250020662
2.3E-6                    17.54395563086296
2.4E-6                    17.480169985307235
2.4999999999999998E-6     17.41595158376869
2.5999999999999997E-6     17.351499141400147
2.7E-6                    17.286671652050586
2.8E-6                    17.221675183763743
2.8999999999999998E-6     17.156396457418634
3.0E-6                    17.09095362651461
3.1E-6                    17.025428505209412
3.2E-6                    16.959786804595698
3.2999999999999997E-6     16.894083096769677
3.3999999999999996E-6     16.828327821181645
3.5E-6                    16.762548973273496
3.6E-6                    16.69678542876575
3.6999999999999997E-6     16.6310488822119
3.8E-6                    16.565401455528576
3.9E-6                    16.499778131514166
4.0E-6                    16.434155369716493
4.1E-6                    16.368665293351157
4.2E-6                    16.30325687603395
4.2999999999999995E-6     16.237848948103267
4.4E-6                    16.172530201576265
4.5E-6                    16.107320610473234
4.6E-6                    16.042111456283525
4.7E-6                    15.97704305373101
4.8E-6                    15.912337562804924
4.9E-6                    15.847632454308497
4.9999999999999996E-6     15.782957059086396
5.0999999999999995E-6     15.718521957656277
5.199999999999999E-6      15.654087269834486
5.3E-6                    15.589653034969107
5.4E-6                    15.526075503862382
5.5E-6                    15.462554228230477
5.6E-6                    15.399033265879268
5.7E-6                    15.335512653012833
5.7999999999999995E-6     15.271992426585768
5.899999999999999E-6      15.208472624294767
6.0E-6                    15.145426957962252
6.1E-6                    15.082699596377084
6.2E-6                    15.019972473638788
6.3E-6                    14.957245622271666
6.4E-6                    14.89451907545771
6.5E-6                    14.831792867029323
6.5999999999999995E-6     14.769372823343092
6.699999999999999E-6      14.70783283135057
6.799999999999999E-6      14.646293131378759
6.9E-6                    14.584753754353946
7.0E-6                    14.523214731765032
7.1E-6                    14.461676095657023
7.2E-6                    14.400137878624463
7.2999999999999996E-6     14.339414691704148
7.3999999999999995E-6     14.278764759563986
7.499999999999999E-6      14.218114929381366
7.6E-6                    14.157465228769285
7.699999999999999E-6      14.096815685804994
7.8E-6                    14.036166329024802
7.899999999999999E-6      13.976402736295988
8.0E-6                    13.917288027544597
8.1E-6                    13.85817366629404
8.2E-6                    13.799059678776716
8.3E-6                    13.739946091604692
8.4E-6                    13.680832931764979
8.5E-6                    13.622145444084921
8.599999999999999E-6      13.563521188344906
8.7E-6                    13.504897148277564
8.8E-6                    13.44627335126713
8.9E-6                    13.387649825104752
9.0E-6                    13.329743050575518
9.1E-6                    13.27209439691481
9.2E-6                    13.214445847325747
9.299999999999999E-6      13.156797424737078
9.4E-6                    13.099279241961595
9.499999999999999E-6      13.042781273547547
9.6E-6                    12.986283594377959
9.7E-6                    12.929786226532926
9.8E-6                    12.873289192373436
9.9E-6                    12.817064867911352
9.999999999999999E-6      12.761123032355892
1.01E-5                   12.705181287018876
1.0199999999999999E-5     12.649239653562818
1.03E-5                   12.593298153903763
1.0399999999999999E-5     12.538305529781473
1.05E-5                   12.483456230097218
1.06E-5                   12.428607103758031
1.07E-5                   12.37375816943464
1.08E-5                   12.3190962082884
1.0899999999999999E-5     12.265004512405504
1.1E-5                    12.210912985850443
1.1099999999999999E-5     12.156821648731666
1.12E-5                   12.102730521354701
1.13E-5                   12.049415614950156
1.14E-5                   11.996567129606822
1.15E-5                   11.943718754890433
1.1599999999999999E-5     11.890870505994094
1.17E-5                   11.838022387592735
1.1799999999999999E-5     11.78517017892655
1.19E-5                   11.732318081689543
1.2E-5                    11.679466116148848
1.21E-5                   11.626614302737655
1.22E-5                   11.574786618531018
1.2299999999999999E-5     11.524626819934312
1.24E-5                   11.474467157611414
1.2499999999999999E-5     11.424307641625775
1.26E-5                   11.374148282154255
1.2699999999999999E-5     11.322327359573901
1.28E-5                   11.269976835439296
1.29E-5                   11.217626387771451
1.3E-5                    11.16527604159572
1.31E-5                   11.11356062508344
1.3199999999999999E-5     11.065871908963908
1.33E-5                   11.018183065258244
1.3399999999999999E-5     10.970494098511477
1.35E-5                   10.922805013307453
1.3599999999999999E-5     10.874494798493592
1.37E-5                   10.826170744575368
1.38E-5                   10.777847982156722
1.3899999999999999E-5     10.728816988711953
1.4E-5                    10.678522135556818
1.4099999999999999E-5     10.628226391771163
1.42E-5                   10.579365274623171
1.4299999999999999E-5     10.533702528016324
1.44E-5                   10.488040819216854
1.45E-5                   10.440510207213846
1.4599999999999999E-5     10.392053357733799
1.47E-5                   10.34426405774087
1.4799999999999999E-5     10.298022784398146
1.49E-5                   10.251744266916935
1.4999999999999999E-5     10.205283703368902
1.51E-5                   10.158797952190797
1.52E-5                   10.112237445483723
1.53E-5                   10.066399890769
1.5399999999999998E-5     10.021210378685526
1.55E-5                   9.975527288593716
1.56E-5                   9.92976649844682
1.57E-5                   9.884548562628463
1.5799999999999998E-5     9.839474651537273
1.59E-5                   9.794667844533684
1.6E-5                    9.750085725601462
1.61E-5                   9.705638888018361
1.62E-5                   9.661221582917014
1.63E-5                   9.61690392487648
1.64E-5                   9.573047493584406
1.6499999999999998E-5     9.52933787952245
1.66E-5                   9.485809967462206
1.67E-5                   9.442309402650219
1.68E-5                   9.398819364581245
1.69E-5                   9.355972757956401
1.7E-5                    9.31315529407558
1.71E-5                   9.270408252417
1.7199999999999998E-5     9.227828840911753
1.73E-5                   9.185390145767217
1.74E-5                   9.143322077196679
1.75E-5                   9.101347902380029
1.76E-5                   9.059485401081087
1.77E-5                   9.01777480056767
1.78E-5                   8.976326948756867
1.7899999999999998E-5     8.935157617898007
1.8E-5                    8.894144595418656
1.81E-5                   8.85313163109492
1.82E-5                   8.812227800441287
1.8299999999999998E-5     8.771792200534374
1.84E-5                   8.731356655640543
1.85E-5                   8.690921172815171
1.8599999999999998E-5     8.65093862486463
1.87E-5                   8.611117441271785
1.88E-5                   8.571296312537314
1.89E-5                   8.531632605174932
1.8999999999999998E-5     8.492362266250744
1.91E-5                   8.453091976130178
1.92E-5                   8.413821741264453
1.9299999999999998E-5     8.375069862717295
1.94E-5                   8.336421074309074
1.95E-5                   8.297772339390956
1.96E-5                   8.259319494159298
1.9699999999999998E-5     8.221182746780118
1.98E-5                   8.183046038963921
1.99E-5                   8.144909376591905
1.9999999999999998E-5     8.107369118013144
2.01E-5                   8.06987312712252
2.02E-5                   8.032377191856813
2.03E-5                   7.99510781118488
2.0399999999999998E-5     7.958084447109084
2.05E-5                   7.921061112763899
2.06E-5                   7.884055272118062
2.07E-5                   7.847660431924138
2.0799999999999997E-5     7.811265642951043
2.09E-5                   7.774870910058586
2.1E-5                    7.738773975187168
2.1099999999999998E-5     7.702896069954598
2.12E-5                   7.667018189519684
2.13E-5                   7.63119697606865
2.14E-5                   7.595773747321373
2.1499999999999997E-5     7.560350564772414
2.16E-5                   7.524927433018337
2.17E-5                   7.490061531720986
2.1799999999999998E-5     7.455466386059167
2.19E-5                   7.420871267489478
2.2E-5                    7.386251118554273
2.21E-5                   7.351542868663656
2.2199999999999998E-5     7.316834653643457
2.23E-5                   7.282126478282268
2.24E-5                   7.2486779309106835
2.2499999999999998E-5     7.215606063095133
2.26E-5                   7.182534224871363
2.27E-5                   7.149097751088906
2.28E-5                   7.114879985985134
2.2899999999999998E-5     7.080662258269347
2.3E-5                    7.04644457364123
2.31E-5                   7.01440801671424
2.3199999999999998E-5     6.982707149519443
2.33E-5                   6.951006272910709
2.34E-5                   6.918994836172663
2.35E-5                   6.8865458161625455
2.3599999999999998E-5     6.854097008420418
2.37E-5                   6.821496271694584
2.38E-5                   6.788554612533003
2.3899999999999998E-5     6.755612803066221
2.4E-5                    6.724022616563905
2.41E-5                   6.693714863741941
2.42E-5                   6.663407274638641
2.4299999999999998E-5     6.631506698878866
2.44E-5                   6.5996017861518
2.45E-5                   6.568680212139071
2.4599999999999998E-5     6.538116794878068
2.4699999999999997E-5     6.507472287460059
2.48E-5                   6.476792270170994
2.49E-5                   6.446214626135183
2.4999999999999998E-5     6.415690301714287
2.51E-5                   6.3855950668345605
2.52E-5                   6.355763481277516
2.53E-5                   6.325900700179358
2.5399999999999997E-5     6.2960154412569285
2.55E-5                   6.266346731059103
2.56E-5                   6.236859718699238
2.5699999999999998E-5     6.207510732682644
2.58E-5                   6.178296562610424
2.59E-5                   6.1491845399646365
2.6E-5                    6.120188574594532
2.6099999999999997E-5     6.0912525527629295
2.62E-5                   6.062395926852493
2.63E-5                   6.033755323726847
2.6399999999999998E-5     6.005449261703042
2.65E-5                   5.97721524561786
2.66E-5                   5.949112382823172
2.67E-5                   5.921076868047781
2.6799999999999998E-5     5.893186683301162
2.69E-5                   5.865373620058586
2.7E-5                    5.837760017365909
2.7099999999999998E-5     5.810169962176273
2.7199999999999997E-5     5.782654038487342
2.73E-5                   5.755207877027774
2.74E-5                   5.728035410833997
2.7499999999999998E-5     5.700901048058526
2.76E-5                   5.673959085755066
2.77E-5                   5.647043875236939
2.7799999999999998E-5     5.620311809693155
2.7899999999999997E-5     5.593608037719612
2.8E-5                    5.567191853569833
2.81E-5                   5.54078554725057
2.8199999999999998E-5     5.514560113510815
2.83E-5                   5.488340430253443
2.84E-5                   5.462529903453043
2.8499999999999998E-5     5.436719389809928
2.8599999999999997E-5     5.410908891005828
2.87E-5                   5.385098408725246
2.88E-5                   5.359756447732567
2.8899999999999998E-5     5.334445395394137
2.9E-5                    5.309134355555815
2.91E-5                   5.283823329805927
2.9199999999999998E-5     5.258918731039887
2.9299999999999997E-5     5.23407897320766
2.94E-5                   5.209239226770506
2.95E-5                   5.184399493231974
2.9599999999999998E-5     5.159945074361614
2.97E-5                   5.135595120846349
2.98E-5                   5.111245179466227
2.99E-5                   5.086895251631906
2.9999999999999997E-5     5.062879372088256
3.01E-5                   5.0389992650166
3.02E-5                   5.015119167163094
3.0299999999999998E-5     4.99123907986145
3.04E-5                   4.967648449007584
3.05E-5                   4.944223978026289
3.06E-5                   4.920799517736361
3.07E-5                   4.897375069386116
3.0799999999999996E-5     4.874188969458232
3.09E-5                   4.851190440292952
3.1E-5                    4.8281919194660246
3.11E-5                   4.805193408167627
3.12E-5                   4.7824087357390255
3.13E-5                   4.75985212656163
3.14E-5                   4.737295526258186
3.15E-5                   4.7147389359411385
3.1599999999999996E-5     4.692445173367097
3.17E-5                   4.670532447837956
3.18E-5                   4.6486197290231575
3.1899999999999996E-5     4.626707017944187
3.2E-5                    4.604794315623747
3.21E-5                   4.582881623085729
3.22E-5                   4.560968941355215
3.23E-5                   4.539056271458436
3.24E-5                   4.51735532050137
3.25E-5                   4.49626710789838
3.26E-5                   4.475178899114532
3.2699999999999995E-5     4.454090695053131
3.28E-5                   4.433002496618497
3.29E-5                   4.411914304715946
3.2999999999999996E-5     4.390826120251789
3.31E-5                   4.369737944133293
3.32E-5                   4.348732237964139
3.3299999999999996E-5     4.328426592102958
3.34E-5                   4.308120950369077
3.35E-5                   4.287815313571271
3.36E-5                   4.267509682519148
3.37E-5                   4.247204058023137
3.38E-5                   4.226898440894483
3.39E-5                   4.206592831945224
3.4E-5                    4.186287231988186
3.4099999999999995E-5     4.166713333389208
3.42E-5                   4.147174743395906
3.43E-5                   4.127636157466756
3.4399999999999996E-5     4.108097576317628
3.45E-5                   4.08855900066506
3.46E-5                   4.069020431226251
3.4699999999999996E-5     4.049481868719053
3.48E-5                   4.029943313861956
3.49E-5                   4.010993067181215
3.5E-5                    3.992187552951739
3.51E-5                   3.973382042195551
3.52E-5                   3.9545765355536022
3.53E-5                   3.9357710336674083
3.54E-5                   3.9169655371790353
3.5499999999999996E-5     3.898160046731099
3.56E-5                   3.8793545629667525
3.57E-5                   3.8610040500364065
3.5799999999999996E-5     3.8428972839414786
3.59E-5                   3.8247905210829374
3.6E-5                    3.806683762030389
3.6099999999999997E-5     3.788577007353894
3.62E-5                   3.7704702576239506
3.63E-5                   3.752363513411507
3.64E-5                   3.734256775287938
3.65E-5                   3.716499736485373
3.6599999999999995E-5     3.6990927554219066
3.67E-5                   3.6816857767732296
3.68E-5                   3.6642788010436877
3.6899999999999996E-5     3.646871828738007
3.7E-5                    3.6294648603612925
3.71E-5                   3.6120578964190218
3.7199999999999996E-5     3.5946509374170397
3.73E-5                   3.5774617231610732
3.74E-5                   3.5606798643644644
3.75E-5                   3.5438980083820018
3.76E-5                   3.5271161556707598
3.77E-5                   3.5103343066881245
3.78E-5                   3.493552461891786
3.79E-5                   3.476770621739725
3.7999999999999995E-5     3.4599887866902233
3.81E-5                   3.443338975318933
3.82E-5                   3.4272275546786033
3.8299999999999996E-5     3.411116135039613
3.84E-5                   3.3950047167936437
3.85E-5                   3.378893300332635
3.8599999999999996E-5     3.362781886048785
3.87E-5                   3.346670474334537
3.88E-5                   3.330559065582585
3.89E-5                   3.3144739903724614
3.9E-5                    3.298941106216991
3.9099999999999995E-5     3.283408225968558
3.92E-5                   3.267875350000335
3.93E-5                   3.2523424786857094
3.9399999999999995E-5     3.2368096123982797
3.95E-5                   3.2212767515118497
3.96E-5                   3.205743896400425
3.9699999999999996E-5     3.190211047438218
3.98E-5                   3.175184158072975
3.99E-5                   3.1602171907948837
3.9999999999999996E-5     3.1452502211261972
4.01E-5                   3.1302832493646315
4.02E-5                   3.115316275808071
4.03E-5                   3.1003493007545644
4.04E-5                   3.085382324502315
4.0499999999999995E-5     3.07041534734969
4.06E-5                   3.0559846906938826
4.07E-5                   3.0417398506685163
4.0799999999999996E-5     3.027495021077802
4.09E-5                   3.0132502022303767
4.1E-5                    2.9990053944350294
4.1099999999999996E-5     2.984760598000705
4.12E-5                   2.970515813236486
4.13E-5                   2.9562710404516053
4.14E-5                   2.942055283532358
4.15E-5                   2.927859572987867
4.1599999999999995E-5     2.913663857214557
4.17E-5                   2.8994681365108037
4.18E-5                   2.8852724111751313
4.1899999999999995E-5     2.8710766815062
4.2E-5                    2.8572375089112394
4.21E-5                   2.843731147272225
4.2199999999999996E-5     2.8302247873856405
4.23E-5                   2.8167184294214893
4.24E-5                   2.80333396685722
4.2499999999999996E-5     2.790172398567507
4.26E-5                   2.7770108376101774
4.27E-5                   2.763849284221489
4.28E-5                   2.7505877505465484
4.29E-5                   2.7372792782786646
4.2999999999999995E-5     2.7239707983177324
4.31E-5                   2.7109694197464638
4.32E-5                   2.6981024339916275
4.3299999999999995E-5     2.6852502230194255
4.34E-5                   2.672462116538715
4.35E-5                   2.659674004552616
4.3599999999999996E-5     2.6470078564713795
4.37E-5                   2.634343900976523
4.38E-5                   2.621765646417095
4.3899999999999996E-5     2.609196312131961
4.4E-5                    2.5966578302265044
4.41E-5                   2.584200111363835
4.42E-5                   2.571844401314619
4.43E-5                   2.5595306867604917
4.4399999999999995E-5     2.54723863703914
4.45E-5                   2.5350127773481197
4.46E-5                   2.522808772758085
4.4699999999999996E-5     2.51072471443376
4.48E-5                   2.4986744706972264
4.49E-5                   2.4866985486173188
4.4999999999999996E-5     2.4747629534141864
4.51E-5                   2.462863060563597
4.52E-5                   2.45105336568869
4.5299999999999997E-5     2.4392740377333064
4.54E-5                   2.42759026616591
4.5499999999999995E-5     2.415925213262019
4.56E-5                   2.4043283781973113
4.57E-5                   2.3927791096474844
4.5799999999999995E-5     2.3813008298979472
4.59E-5                   2.3698760172084863
4.6E-5                    2.358484123681549
4.6099999999999996E-5     2.3471715252609977
4.62E-5                   2.3358801393015405
4.63E-5                   2.324688443335291
4.6399999999999996E-5     2.3135389260515478
4.65E-5                   2.3025022766603165
4.66E-5                   2.2914656282512325
4.67E-5                   2.2804289809522564
4.68E-5                   2.2695392444218023
4.6899999999999995E-5     2.2587102629156033
4.7E-5                    2.2478812823165293
4.71E-5                   2.237078194024438
4.7199999999999995E-5     2.226430470664884
4.73E-5                   2.215782748215002
4.74E-5                   2.2051350267893617
4.7499999999999996E-5     2.194590256068668
4.76E-5                   2.184120573363666
4.77E-5                   2.1736508914602375
4.7799999999999996E-5     2.1631836547934853
4.79E-5                   2.152893000267784
4.8E-5                    2.142602346530828
4.81E-5                   2.132311693685865
4.82E-5                   2.122098170676768
4.8299999999999995E-5     2.1119792765263314
4.84E-5                   2.1018603831217986
4.85E-5                   2.091741490561595
4.8599999999999995E-5     2.0817750665986394
4.87E-5                   2.0718285601494983
4.88E-5                   2.061882054448315
4.8899999999999996E-5     2.052020433769056
4.9E-5                    2.042339302667202
4.91E-5                   2.0326581721710926
4.9199999999999997E-5     2.0229770423667777
4.93E-5                   2.0132959133403245
4.9399999999999995E-5     2.003614785177823
4.95E-5                   1.9939336579653764
4.96E-5                   1.9843158989050684
4.9699999999999995E-5     1.9749671011764705
4.98E-5                   1.9656183038075599
4.99E-5                   1.9562695068756952
4.9999999999999996E-5     1.946920710458253
5.01E-5                   1.9375719146326216
5.02E-5                   1.9282231194762087
5.0299999999999996E-5     1.918893330082137
5.04E-5                   1.9098536325543243
5.05E-5                   1.9008139354252056
5.06E-5                   1.8917742387647616
5.07E-5                   1.882734542642984
5.0799999999999995E-5     1.8736948471298793
5.09E-5                   1.8646551522954675
5.1E-5                    1.8556154582097801
5.1099999999999995E-5     1.8469929572702695
5.12E-5                   1.8384007539210083
5.13E-5                   1.829808550892915
5.1399999999999996E-5     1.8212163482460364
5.15E-5                   1.8126241460404287
5.16E-5                   1.804031944336159
5.1699999999999996E-5     1.7954397431933067
5.18E-5                   1.7868475426719581
5.1899999999999994E-5     1.778255342832213
5.2E-5                    1.7696631437341788
5.21E-5                   1.7610709454379734
5.2199999999999995E-5     1.7524787480037256
5.23E-5                   1.7438865514915716
5.24E-5                   1.7352943559616583
5.2499999999999995E-5     1.7270838083295554
5.26E-5                   1.7190579283563683
5.27E-5                   1.7110320483409127
5.2799999999999996E-5     1.7030061683320166
5.29E-5                   1.6949802883785132
5.3E-5                    1.6869544085292467
5.3099999999999996E-5     1.6789285288330678
5.32E-5                   1.670902649338834
5.3299999999999995E-5     1.6628767700954132
5.34E-5                   1.6548508911516773
5.35E-5                   1.646825012556508
5.3599999999999995E-5     1.6387991343587942
5.37E-5                   1.6307732566074296
5.38E-5                   1.622747379351319
5.3899999999999996E-5     1.6149408597530184
5.4E-5                    1.6074428781630707
5.41E-5                   1.5999448966907077
5.4199999999999996E-5     1.5924469153758443
5.43E-5                   1.5849489342584016
5.4399999999999994E-5     1.5774509533783068
5.4499999999999997E-5     1.5699529727754906
5.46E-5                   1.562454992489891
5.4699999999999995E-5     1.554957012561451
5.48E-5                   1.547459033030118
5.49E-5                   1.5399610539358446
5.4999999999999995E-5     1.5324630753185886
5.51E-5                   1.524965097218313
5.52E-5                   1.5174671196749854
5.5299999999999996E-5     1.5100472437082781
5.54E-5                   1.5030462499638946
5.55E-5                   1.4960452562200257
5.5599999999999996E-5     1.4890442625089597
5.57E-5                   1.4820432688629859
5.5799999999999994E-5     1.4750422753144
5.59E-5                   1.4680412818954993
5.6E-5                    1.461040288638587
5.6099999999999995E-5     1.4540392955759696
5.62E-5                   1.4470383027399556
5.63E-5                   1.4400373101628603
5.6399999999999995E-5     1.4330363178769998
5.65E-5                   1.4260353259146952
5.66E-5                   1.4190343343082708
5.6699999999999996E-5     1.4120333430900542
5.68E-5                   1.4054452635378611
5.69E-5                   1.3989036916545647
5.6999999999999996E-5     1.3923621198535885
5.71E-5                   1.3858205481615318
5.7199999999999994E-5     1.3792789766050002
5.73E-5                   1.372737405210597
5.74E-5                   1.3661958340049336
5.7499999999999995E-5     1.3596542630146207
5.76E-5                   1.3531126922662724
5.77E-5                   1.3465711217865057
5.7799999999999995E-5     1.3400295516019407
5.79E-5                   1.3334879817391987
5.8E-5                    1.3269464122249042
5.8099999999999996E-5     1.3204048430856845
5.82E-5                   1.3141401513277298
5.8299999999999994E-5     1.3080309414582767
5.8399999999999997E-5     1.3019217316056642
5.85E-5                   1.295812521791303
5.8599999999999995E-5     1.2897033120366048
5.87E-5                   1.283594102362983
5.88E-5                   1.2774848927918538
5.8899999999999995E-5     1.2713756833446355
5.9E-5                    1.2652664740427466
5.91E-5                   1.2591572649076086
5.9199999999999996E-5     1.2530480559606456
5.93E-5                   1.2469388472232812
5.94E-5                   1.2408296387169433
5.9499999999999996E-5     1.2347204304630603
5.96E-5                   1.2287654199385836
5.9699999999999994E-5     1.2230598645261594
5.98E-5                   1.2173543091519683
5.99E-5                   1.211648753833647
5.9999999999999995E-5     1.205943198588836
6.01E-5                   1.2002376434351738
6.02E-5                   1.194532088390303
6.0299999999999995E-5     1.1888265334718668
6.04E-5                   1.1831209786975083
6.05E-5                   1.177415424084874
6.0599999999999996E-5     1.1717098696516115
6.07E-5                   1.1660043154153685
6.08E-5                   1.160298761393794
6.0899999999999996E-5     1.1545932076045404
6.1E-5                    1.148933883122331
6.11E-5                   1.1436022788713396
6.12E-5                   1.1382706746568116
6.13E-5                   1.1329390704930309
6.14E-5                   1.1276074663942817
6.149999999999999E-5      1.12227586237485
6.159999999999999E-5      1.1169442584490215
6.17E-5                   1.1116126546310823
6.18E-5                   1.1062810509353225
6.19E-5                   1.1009494473760302
6.2E-5                    1.0956178439674955
6.209999999999999E-5      1.0902862407240101
6.22E-5                   1.0849546376598649
6.23E-5                   1.0796230347893527
6.24E-5                   1.074291432126767
6.25E-5                   1.0692669017666976
6.26E-5                   1.0642901965072262
6.269999999999999E-5      1.0593134912229076
6.28E-5                   1.0543367859253265
6.29E-5                   1.0493600806260706
6.3E-5                    1.0443833753367278
6.31E-5                   1.0394066700688869
6.319999999999999E-5      1.034429964834137
6.33E-5                   1.0294532596440675
6.34E-5                   1.0244765545102688
6.35E-5                   1.0194998494443328
6.36E-5                   1.0145231444578515
6.37E-5                   1.0095464395624165
6.379999999999999E-5      1.0045697347696223
6.39E-5                   0.9997911525912567
6.4E-5                    0.9951409191315932
6.41E-5                   0.9904906857952047
6.42E-5                   0.9858404525917575
6.429999999999999E-5      0.9811902195309186
6.44E-5                   0.9765399866223542
6.45E-5                   0.9718897538757321
6.46E-5                   0.9672395213007208
6.47E-5                   0.9625892889069887
6.48E-5                   0.9579390567042048
6.489999999999999E-5      0.9532888247020388
6.5E-5                    0.9486385929101597
6.51E-5                   0.9439883613382382
6.52E-5                   0.9393381299959449
6.53E-5                   0.934793551787142
6.539999999999999E-5      0.9304465034661594
6.549999999999999E-5      0.9260994550008457
6.56E-5                   0.9217524063986547
6.57E-5                   0.9174053576670405
6.58E-5                   0.9130583088134567
6.59E-5                   0.9087112598453582
6.599999999999999E-5      0.9043642107702003
6.61E-5                   0.900017161595437
6.62E-5                   0.8956701123285248
6.63E-5                   0.8913230629769191
6.64E-5                   0.8869760135480766
6.65E-5                   0.882628964049454
6.659999999999999E-5      0.8782819144885088
6.67E-5                   0.873962203354957