% Model:              20230225_JW_4_10.mph
% Version:            COMSOL 5.6.0.401
% Date:               Feb 25 2023, 20:26
% Dimension:          1
% Nodes:              1501
% Expressions:        1
% Description:        点图
% X                       Height
0                         11.324891814586344
1.0E-7                    11.32827225819774
2.0E-7                    11.347496382865563
3.0E-7                    11.383199699995151
4.0E-7                    11.402438351562774
5.0E-7                    11.406555427497329
6.0E-7                    11.418231030847561
7.0E-7                    11.422486340989805
8.0E-7                    11.420767335417978
9.0E-7                    11.412284484374103
1.0E-6                    11.40447761987849
1.1E-6                    11.387936601229647
1.2E-6                    11.371862624139311
1.2999999999999998E-6     11.351092863117447
1.4E-6                    11.327633648209154
1.5E-6                    11.301494235478053
1.6E-6                    11.274106182439242
1.6999999999999998E-6     11.24390681330866
1.8E-6                    11.211861442546919
1.9E-6                    11.178430076175447
2.0E-6                    11.143466815936254
2.1E-6                    11.107345038291431
2.2E-6                    11.07019411086809
2.3E-6                    11.032066461112851
2.4E-6                    10.992974708971062
2.4999999999999998E-6     10.953150889096522
2.5999999999999997E-6     10.912842700455148
2.7E-6                    10.871810148312807
2.8E-6                    10.83049339277293
2.8999999999999998E-6     10.788731453905667
3.0E-6                    10.746524702486484
3.1E-6                    10.704099940290902
3.2E-6                    10.661399583259279
3.2999999999999997E-6     10.618526393046364
3.3999999999999996E-6     10.57550884259093
3.5E-6                    10.532308074284659
3.6E-6                    10.489054856227465
3.6999999999999997E-6     10.445726272937884
3.8E-6                    10.402354920584239
3.9E-6                    10.358972755363785
4.0E-6                    10.315591436044823
4.1E-6                    10.272264403779106
4.2E-6                    10.228970971234567
4.2999999999999995E-6     10.185678306195069
4.4E-6                    10.142454926409998
4.5E-6                    10.099316242858283
4.6E-6                    10.056178243575296
4.7E-6                    10.013113576457442
4.8E-6                    9.970237268698815
4.9E-6                    9.9273616342991
4.9999999999999996E-6     9.884525576414276
5.0999999999999995E-6     9.842008555214461
5.199999999999999E-6      9.79949211405763
5.3E-6                    9.756976275882826
5.4E-6                    9.714971407227353
5.5E-6                    9.673000462223058
5.6E-6                    9.631030098739867
5.7E-6                    9.589060338461108
5.7999999999999995E-6     9.547091203388748
5.899999999999999E-6      9.505122715839374
6.0E-6                    9.463662921709233
6.1E-6                    9.422544717683031
6.2E-6                    9.381426968711473
6.3E-6                    9.340309694275367
6.4E-6                    9.299192914127248
6.5E-6                    9.258076648288053
6.5999999999999995E-6     9.217209965019007
6.699999999999999E-6      9.177060254193425
6.799999999999999E-6      9.136911002292344
6.9E-6                    9.096762226987611
7.0E-6                    9.056613946183505
7.1E-6                    9.016466178013816
7.2E-6                    8.976318940838945
7.2999999999999996E-6     8.936785155721292
7.3999999999999995E-6     8.897306788381188
7.499999999999999E-6      8.857828797750877
7.6E-6                    8.818351200751932
7.699999999999999E-6      8.778874014501454
7.8E-6                    8.739397256309541
7.899999999999999E-6      8.70046243047778
8.0E-6                    8.661924588468997
8.1E-6                    8.62338714101969
8.2E-6                    8.58485010316618
8.3E-6                    8.546313490111194
8.4E-6                    8.507777317221683
8.5E-6                    8.470291868159347
8.599999999999999E-6      8.432962453412829
8.7E-6                    8.395633412732058
8.8E-6                    8.35830476041359
8.9E-6                    8.320976510897783
9.0E-6                    8.283767238476472
9.1E-6                    8.246600999572696
9.2E-6                    8.20943509837458
9.299999999999999E-6      8.172269548938113
9.4E-6                    8.135191902276448
9.499999999999999E-6      8.098800921908326
9.6E-6                    8.062410225391147
9.7E-6                    8.026019824917054
9.8E-6                    7.989629732785767
9.9E-6                    7.953601974647421
9.999999999999999E-6      7.917949817659962
1.01E-5                   7.88229797716519
1.0199999999999999E-5     7.846646465015404
1.03E-5                   7.810995293168498
1.0399999999999999E-5     7.775740474172954
1.05E-5                   7.740545659893697
1.06E-5                   7.705351094240872
1.07E-5                   7.670156788666419
1.08E-5                   7.635148453249358
1.0899999999999999E-5     7.600707216748598
1.1E-5                    7.566266237480313
1.1099999999999999E-5     7.531825525489812
1.12E-5                   7.497385090903074
1.13E-5                   7.4633553770628245
1.14E-5                   7.429572533611212
1.15E-5                   7.395789925541154
1.1599999999999999E-5     7.362007562908446
1.17E-5                   7.328226797705142
1.1799999999999999E-5     7.294975350303589
1.19E-5                   7.261724127050382
1.2E-5                    7.22847313696373
1.21E-5                   7.195222389130178
1.22E-5                   7.162226297207765
1.2299999999999999E-5     7.129644753557147
1.24E-5                   7.097063383044577
1.2499999999999999E-5     7.0644821944149125
1.26E-5                   7.031901196466566
1.2699999999999999E-5     6.999834395178349
1.28E-5                   6.9679316611668325
1.29E-5                   6.936029171197334
1.3E-5                    6.904126933035459
1.31E-5                   6.872112173181618
1.3199999999999999E-5     6.839382192139138
1.33E-5                   6.806652331516741
1.3399999999999999E-5     6.773922600924196
1.35E-5                   6.741193010022603
1.3599999999999999E-5     6.712252396326824
1.37E-5                   6.683403970276789
1.38E-5                   6.654555658091786
1.3899999999999999E-5     6.625166347294093
1.4E-5                    6.5948137046183195
1.4099999999999999E-5     6.564461565023596
1.42E-5                   6.533850075875696
1.4299999999999999E-5     6.502659723953209
1.44E-5                   6.471469191754795
1.45E-5                   6.442468420393636
1.4599999999999999E-5     6.414552399890991
1.47E-5                   6.385817869302149
1.4799999999999999E-5     6.35518587453137
1.49E-5                   6.324820842066811
1.4999999999999999E-5     6.29575133868865
1.51E-5                   6.266891562891241
1.52E-5                   6.238650147879416
1.53E-5                   6.20984046378581
1.5399999999999998E-5     6.180521479177821
1.55E-5                   6.1520774374372955
1.56E-5                   6.123835174846929
1.57E-5                   6.095412432055115
1.5799999999999998E-5     6.067119195677259
1.59E-5                   6.039066298837896
1.6E-5                    6.011044867698474
1.61E-5                   5.983042406807018
1.62E-5                   5.955370830900411
1.63E-5                   5.927763353366583
1.64E-5                   5.9002835606496555
1.6499999999999998E-5     5.8728095803369635
1.66E-5                   5.845342663695047
1.67E-5                   5.818309730693755
1.68E-5                   5.791444778005381
1.69E-5                   5.764361531024512
1.7E-5                    5.737398087997713
1.71E-5                   5.710762045207568
1.7199999999999998E-5     5.684236823629973
1.73E-5                   5.657804606336308
1.74E-5                   5.631383943557916
1.75E-5                   5.605005493027595
1.76E-5                   5.579017152953842
1.77E-5                   5.553041139188485
1.78E-5                   5.5270863222910025
1.7899999999999998E-5     5.501357500860462
1.8E-5                    5.47575555262436
1.81E-5                   5.45015370689581
1.82E-5                   5.424627465856291
1.8299999999999998E-5     5.399425392653979
1.84E-5                   5.3742234054441935
1.85E-5                   5.349021507941502
1.8599999999999998E-5     5.3240784165305834
1.87E-5                   5.299227564419041
1.88E-5                   5.274376799018087
1.89E-5                   5.249646314572152
1.8999999999999998E-5     5.225216327553154
1.91E-5                   5.20078642286551
1.92E-5                   5.176356603857174
1.9299999999999998E-5     5.152203355678218
1.94E-5                   5.1281051479944075
1.95E-5                   5.10400701576444
1.96E-5                   5.080066894215582
1.9699999999999998E-5     5.056381739380881
1.98E-5                   5.032696662709302
1.99E-5                   5.009011667239896
1.9999999999999998E-5     4.985622202203961
2.01E-5                   4.962254706308705
2.02E-5                   4.938887275507742
2.03E-5                   4.915720513360874
2.0399999999999998E-5     4.892771683148003
2.05E-5                   4.869822927434325
2.06E-5                   4.8468821055072215
2.07E-5                   4.82421628515526
2.0799999999999997E-5     4.801550518594015
2.09E-5                   4.778884808547449
2.1E-5                    4.756471676940001
2.1099999999999998E-5     4.734244350706924
2.12E-5                   4.7120170932554535
2.13E-5                   4.689820667866679
2.14E-5                   4.667840433667977
2.1499999999999997E-5     4.645860249880444
2.16E-5                   4.6238801190013445
2.17E-5                   4.6021946843343144
2.1799999999999998E-5     4.58065246884658
2.19E-5                   4.5591103109328515
2.2E-5                    4.53762758017648
2.21E-5                   4.516353681626929
2.2199999999999998E-5     4.4950798379054575
2.23E-5                   4.4738060512791185
2.24E-5                   4.452758021979803
2.2499999999999998E-5     4.431777524035176
2.26E-5                   4.410797066953743
2.27E-5                   4.390001161060627
2.28E-5                   4.369600628906544
2.2899999999999998E-5     4.349200155663153
2.3E-5                    4.328799743208616
2.31E-5                   4.3080415042916425
2.3199999999999998E-5     4.287228224980817
2.33E-5                   4.266414989875687
2.34E-5                   4.246338350497979
2.35E-5                   4.2272999149619235
2.3599999999999998E-5     4.2082614983056
2.37E-5                   4.18895634667884
2.38E-5                   4.16905359234749
2.3899999999999998E-5     4.149150960420621
2.4E-5                    4.1290682090352755
2.41E-5                   4.108814469644469
2.42E-5                   4.088560690477386
2.4299999999999998E-5     4.070291591219901
2.44E-5                   4.052027937172917
2.45E-5                   4.03268845776535
2.4599999999999998E-5     4.01295717259208
2.4699999999999997E-5     3.9937236546493873
2.48E-5                   3.974708376925078
2.49E-5                   3.9560646037948106
2.4999999999999998E-5     3.9376145890953644
2.51E-5                   3.918910359811393
2.52E-5                   3.9000499244166034
2.53E-5                   3.8815561129338194
2.5399999999999997E-5     3.863326067355402
2.55E-5                   3.8450974180290394
2.56E-5                   3.826869935947158
2.5699999999999998E-5     3.808735254128314
2.58E-5                   3.7906911953591713
2.59E-5                   3.7726882207933548
2.6E-5                    3.754731941154853
2.6099999999999997E-5     3.736889286530118
2.62E-5                   3.7191971024143795
2.63E-5                   3.701546594979772
2.6399999999999998E-5     3.683960617210709
2.65E-5                   3.6664681258739633
2.66E-5                   3.649145826192073
2.67E-5                   3.631884124807544
2.6799999999999998E-5     3.614753175239414
2.69E-5                   3.597617742759643
2.7E-5                    3.580470650554609
2.7099999999999998E-5     3.5633946530404756
2.7199999999999997E-5     3.5465425831049333
2.73E-5                   3.5297008745305365
2.74E-5                   3.5128997271030444
2.7499999999999998E-5     3.496129799832334
2.76E-5                   3.479517485612221
2.77E-5                   3.462929254861521
2.7799999999999998E-5     3.4465058579361285
2.7899999999999997E-5     3.4300906946355725
2.8E-5                    3.413759002870968
2.81E-5                   3.3974383945438142
2.8199999999999998E-5     3.381320789791633
2.83E-5                   3.3652060024500674
2.84E-5                   3.3492902780261256
2.8499999999999998E-5     3.33337457303264
2.8599999999999997E-5     3.317458888365706
2.87E-5                   3.301543224922571
2.88E-5                   3.2859315571058394
2.8899999999999998E-5     3.2703399556142303
2.9E-5                    3.2547483743253607
2.91E-5                   3.2391568140787528
2.9199999999999998E-5     3.2238226775863508
2.9299999999999997E-5     3.2085296199094144
2.94E-5                   3.1932365808832524
2.95E-5                   3.17794356129963
2.9599999999999998E-5     3.1628870959427333
2.97E-5                   3.1478947716562753
2.98E-5                   3.132902464872832
2.99E-5                   3.1179101763405037
2.9999999999999997E-5     3.1031327773765285
3.01E-5                   3.0884427262991356
3.02E-5                   3.0737526920250757
3.0299999999999998E-5     3.059062675254055
3.04E-5                   3.044542971587714
3.05E-5                   3.030121037418183
3.06E-5                   3.0156991182675967
3.07E-5                   3.001277214799964
3.0799999999999996E-5     2.9870141807253567
3.09E-5                   2.972876173828129
3.1E-5                    2.9587381820397503
3.11E-5                   2.9446002059823293
3.12E-5                   2.9305878772826968
3.13E-5                   2.9167095517133785
3.14E-5                   2.9028312393330884
3.15E-5                   2.8889529407328025
3.1599999999999996E-5     2.8752403212763507
3.17E-5                   2.861767893896836
3.18E-5                   2.8482954787217833
3.1899999999999996E-5     2.8348230762881927
3.2E-5                    2.8213506871335547
3.21E-5                   2.8078783117958515
3.22E-5                   2.7944059508135415
3.23E-5                   2.7809336047255555
3.24E-5                   2.767592011314672
3.25E-5                   2.754628816399659
3.26E-5                   2.7416656309494303
3.2699999999999995E-5     2.728702455441843
3.28E-5                   2.7157392903551676
3.29E-5                   2.7027761361680858
3.2999999999999996E-5     2.689812993359683
3.31E-5                   2.676849862409441
3.32E-5                   2.6639386224212096
3.3299999999999996E-5     2.6514678188478853
3.34E-5                   2.6389970241617413
3.35E-5                   2.626526238787456
3.36E-5                   2.614055463150051
3.37E-5                   2.601584697674875
3.38E-5                   2.5891139427876126
3.39E-5                   2.576643198914271
3.4E-5                    2.5641724664811774
3.4099999999999995E-5     2.5521428145522185
3.42E-5                   2.5401344524377376
3.43E-5                   2.528126098258921
3.4399999999999996E-5     2.516117752394066
3.45E-5                   2.504109415221741
3.46E-5                   2.4921010871207905
3.4699999999999996E-5     2.4800927684703247
3.48E-5                   2.468084459649717
3.49E-5                   2.4564531703099517
3.5E-5                    2.4449146372395916
3.51E-5                   2.4333761114928274
3.52E-5                   2.4218375934057788
3.53E-5                   2.410299083314796
3.54E-5                   2.398760581556448
3.5499999999999996E-5     2.3872220884675284
3.56E-5                   2.3756836043850424
3.57E-5                   2.364418649295673
3.5799999999999996E-5     2.3533002367547273
3.59E-5                   2.3421818303087782
3.6E-5                    2.3310634302577307
3.6099999999999997E-5     2.3199450369016774
3.62E-5                   2.308826650540895
3.63E-5                   2.2977082714758468
3.64E-5                   2.286589900007171
3.65E-5                   2.2756904642601277
3.6599999999999995E-5     2.265010189077626
3.67E-5                   2.254329919705285
3.68E-5                   2.2436496564086204
3.6899999999999996E-5     2.2329693994533018
3.7E-5                    2.222289149105148
3.71E-5                   2.2116089056301287
3.7199999999999996E-5     2.2009286692943575
3.73E-5                   2.1903861408409133
3.74E-5                   2.1801012312621393
3.75E-5                   2.1698163263751304
3.76E-5                   2.1595314264172516
3.77E-5                   2.149246531625998
3.78E-5                   2.138961642238993
3.79E-5                   2.128676758493982
3.7999999999999995E-5     2.1183918806288347
3.81E-5                   2.108181702713824
3.82E-5                   2.0982761416928732
3.8299999999999996E-5     2.088370585344618
3.84E-5                   2.078465033880705
3.85E-5                   2.068559487512889
3.8599999999999996E-5     2.058653946453024
3.87E-5                   2.0487484109130643
3.88E-5                   2.038842881105062
3.89E-5                   2.02895710789953
3.9E-5                    2.0194855431204024
3.9099999999999995E-5     2.0100139816344953
3.92E-5                   2.000542423625323
3.93E-5                   1.9910708692764876
3.9399999999999995E-5     1.9815993187716776
3.95E-5                   1.9721277722946646
3.96E-5                   1.9626562300293053
3.9699999999999996E-5     1.9531846921595408
3.98E-5                   1.9438963194188448
3.99E-5                   1.934629644516364
3.9999999999999996E-5     1.925362974378898
4.01E-5                   1.9160963091840546
4.02E-5                   1.9068296491095136
4.03E-5                   1.8975629943330237
4.04E-5                   1.8882963450323977
4.0499999999999995E-5     1.8790297013855182
4.06E-5                   1.8702716444409269
4.07E-5                   1.861689786166989
4.0799999999999996E-5     1.8531079287401668
4.09E-5                   1.8445260722880998
4.1E-5                    1.8359442169384854
4.1099999999999996E-5     1.8273623628190767
4.12E-5                   1.8187805100576793
4.13E-5                   1.810198658782155
4.14E-5                   1.801649243760742
4.15E-5                   1.7931222560112665
4.1599999999999995E-5     1.7845952772874336
4.17E-5                   1.776068307750756
4.18E-5                   1.7675413475627935
4.1899999999999995E-5     1.7590143968851468
4.2E-5                    1.7504107456052391
4.21E-5                   1.7417354939635576
4.2199999999999996E-5     1.733060239678696
4.23E-5                   1.7243849828861921
4.24E-5                   1.7159290628281534
4.2499999999999996E-5     1.7078742193175045
4.26E-5                   1.6998193809948199
4.27E-5                   1.691764547948245
4.28E-5                   1.6836688742962727
4.29E-5                   1.6755540305036818
4.2999999999999995E-5     1.6674391887509057
4.31E-5                   1.659361762127409
4.32E-5                   1.6513007068826813
4.3299999999999995E-5     1.6433072655154937
4.34E-5                   1.6356074023193798
4.35E-5                   1.6279075464342185
4.3599999999999996E-5     1.6200877116013863
4.37E-5                   1.6122667326677915
4.38E-5                   1.6045160889359633
4.3899999999999996E-5     1.5967961049801016
4.4E-5                    1.5891821938850008
4.41E-5                   1.5815681331352118
4.42E-5                   1.5739538819556278
4.43E-5                   1.566396733124941
4.4399999999999995E-5     1.558869056377513
4.45E-5                   1.5513876100485127
4.46E-5                   1.5439194206734765
4.4699999999999996E-5     1.5365159351076345
4.48E-5                   1.5291288250331472
4.49E-5                   1.5217776987217584
4.4999999999999996E-5     1.5144678824166453
4.51E-5                   1.5071946386655883
4.52E-5                   1.49996262884552
4.5299999999999997E-5     1.492744503959346
4.54E-5                   1.4855747419239487
4.5499999999999995E-5     1.478422252309785
4.56E-5                   1.4713389901144656
4.57E-5                   1.4642714782587547
4.5799999999999995E-5     1.457227469111617
4.59E-5                   1.4502258754328232
4.6E-5                    1.4432503979750164
4.6099999999999996E-5     1.4363284013670234
4.62E-5                   1.4294194427228355
4.63E-5                   1.4225556256615552
4.6399999999999996E-5     1.415721018630713
4.65E-5                   1.4089645747461879
4.66E-5                   1.4022081324394569
4.67E-5                   1.3954516917771338
4.68E-5                   1.3887826388692373
4.6899999999999995E-5     1.3821497257336395
4.7E-5                    1.3755168140464755
4.71E-5                   1.3688999680821214
4.7199999999999995E-5     1.3623795189509758
4.73E-5                   1.3558590712310066
4.74E-5                   1.349338624982164
4.7499999999999996E-5     1.3428819295307788
4.76E-5                   1.3364717315138157
4.77E-5                   1.3300615348085245
4.7799999999999996E-5     1.3236528097904057
4.79E-5                   1.3173503038081409
4.8E-5                    1.3110477990940967
4.81E-5                   1.3047452957024455
4.82E-5                   1.2984911620748132
4.8299999999999995E-5     1.2922963720151162
4.84E-5                   1.2861015831202123
4.85E-5                   1.279906795441491
4.8599999999999995E-5     1.2738039016712392
4.87E-5                   1.2677130129897536
4.88E-5                   1.2616221255083702
4.8899999999999996E-5     1.2555835638578985
4.9E-5                    1.2496562608371642
4.91E-5                   1.2437289588086604
4.9199999999999997E-5     1.2378016578173807
4.93E-5                   1.2318743579083238
4.9399999999999995E-5     1.2259470591264983
4.95E-5                   1.220019761516919
4.96E-5                   1.2141312763739454
4.9699999999999995E-5     1.2084075259540872
4.98E-5                   1.2026837763903593
4.99E-5                   1.1969600277233055
4.9999999999999996E-5     1.1912362799934757
5.01E-5                   1.1855125332414262
5.02E-5                   1.17978878750772
5.0299999999999996E-5     1.174076717889721
5.04E-5                   1.1685428564633533
5.05E-5                   1.16300899578836
5.06E-5                   1.157475135901335
5.07E-5                   1.151941276838875
5.0799999999999995E-5     1.1464074186375839
5.09E-5                   1.1408735613340701
5.1E-5                    1.1353397049649483
5.1099999999999995E-5     1.1300614186013107
5.12E-5                   1.1248016928031934
5.13E-5                   1.1195419676755234
5.1399999999999996E-5     1.114282243249733
5.15E-5                   1.1090225195572587
5.16E-5                   1.103762796629542
5.1699999999999996E-5     1.098503074498029
5.18E-5                   1.0932433531941683
5.1899999999999994E-5     1.0879836327494141
5.2E-5                    1.0827239131952244
5.21E-5                   1.0774641945630605
5.2199999999999995E-5     1.0722044768843888
5.23E-5                   1.0669447601906779
5.24E-5                   1.061685044513402
5.2499999999999995E-5     1.056658962372383
5.26E-5                   1.0517459285123958
5.27E-5                   1.0468328950326258
5.2799999999999996E-5     1.041919861958646
5.29E-5                   1.0370068293160302
5.3E-5                    1.0320937971303572
5.3099999999999996E-5     1.0271807654272085
5.32E-5                   1.0222677342321687
5.3299999999999995E-5     1.017354703570825
5.34E-5                   1.0124416734687673
5.35E-5                   1.007528643951591
5.3599999999999995E-5     1.002615615044892
5.37E-5                   0.9977025867742697
5.38E-5                   0.9927895591653264
5.3899999999999996E-5     0.9880117819583341
5.4E-5                    0.9834242413316165
5.41E-5                   0.9788367010781999
5.4199999999999996E-5     0.9742491612189325
5.43E-5                   0.9696616217746642
5.4399999999999994E-5     0.9650740827662487
5.4499999999999997E-5     0.9604865442145402
5.46E-5                   0.9558990061403959
5.4699999999999995E-5     0.9513114685646764
5.48E-5                   0.9467239315082416
5.49E-5                   0.9421363949919557
5.4999999999999995E-5     0.9375488590366843
5.51E-5                   0.9329613236632951
5.52E-5                   0.9283737888926573
5.5299999999999996E-5     0.9238333656744626
5.54E-5                   0.9195456147275217
5.55E-5                   0.9152578640614378
5.5599999999999996E-5     0.9109701136931758
5.57E-5                   0.9066823636397012
5.5799999999999994E-5     0.902394613917982
5.59E-5                   0.8981068645449863
5.6E-5                    0.8938191155376853
5.6099999999999995E-5     0.8895313669130515
5.62E-5                   0.8852436186880579
5.63E-5                   0.8809558708796797
5.6399999999999995E-5     0.8766681235048942
5.65E-5                   0.8723803765806785
5.66E-5                   0.8680926301240126
5.6699999999999996E-5     0.8638048841518777
5.68E-5                   0.8597769754131896
5.69E-5                   0.855778333208029
5.6999999999999996E-5     0.8517796912436553
5.71E-5                   0.8477810495338912
5.7199999999999994E-5     0.8437824080925604
5.73E-5                   0.8397837669334873
5.74E-5                   0.835785126070498
5.7499999999999995E-5     0.8317864855174197
5.76E-5                   0.8277878452880799
5.77E-5                   0.8237892053963083
5.7799999999999995E-5     0.8197905658559349
5.79E-5                   0.8157919266807907
5.8E-5                    0.8117932878847082
5.8099999999999996E-5     0.807794649481521
5.82E-5                   0.8039601732175864
5.8299999999999994E-5     0.8002178831229034
5.8399999999999997E-5     0.7964755932287768
5.85E-5                   0.7927333035464877
5.8599999999999995E-5     0.7889910140873174
5.87E-5                   0.7852487248625476
5.88E-5                   0.7815064358834616
5.8899999999999995E-5     0.7777641471613437
5.9E-5                    0.7740218587074776
5.91E-5                   0.7702795705331487
5.9199999999999996E-5     0.7665372826496437
5.93E-5                   0.7627949950682483
5.94E-5                   0.7590527078002509
5.9499999999999996E-5     0.7553104208569393
5.96E-5                   0.7516655265934816
5.9699999999999994E-5     0.7481781903103173
5.98E-5                   0.7446908541801258
5.99E-5                   0.7412035182120571
5.9999999999999995E-5     0.7377161824152613
6.01E-5                   0.7342288467988881
6.02E-5                   0.7307415113720892
6.0299999999999995E-5     0.7272541761440161
6.04E-5                   0.7237668411238205
6.05E-5                   0.7202795063206556
6.0599999999999996E-5     0.7167921717436748
6.07E-5                   0.7133048374020313
6.08E-5                   0.70981750330488
6.0899999999999996E-5     0.7063301694613755
6.1E-5                    0.7028705293963503
6.11E-5                   0.699607210241161
6.12E-5                   0.6963438912191889
6.13E-5                   0.6930805723379373
6.14E-5                   0.6898172536049089
6.149999999999999E-5      0.6865539350276079
6.159999999999999E-5      0.6832906166135372
6.17E-5                   0.6800272983702017
6.18E-5                   0.6767639803051061
6.19E-5                   0.6735006624257555
6.2E-5                    0.670237344739655
6.209999999999999E-5      0.6669740272543112
6.22E-5                   0.6637107099772295
6.23E-5                   0.6604473929159167
6.24E-5                   0.6571840760778797
6.25E-5                   0.6541080609950513
6.26E-5                   0.6510612174052783
6.269999999999999E-5      0.6480143739210904
6.28E-5                   0.6449675305485624
6.29E-5                   0.6419206872937714
6.3E-5                    0.638873844162794
6.31E-5                   0.635827001161707
6.319999999999999E-5      0.6327801582965881
6.33E-5                   0.6297333155735136
6.34E-5                   0.6266864729985622
6.35E-5                   0.6236396305778115
6.36E-5                   0.6205927883173403
6.37E-5                   0.6175459462232268
6.379999999999999E-5      0.6144991043015497
6.39E-5                   0.6115800969918487
6.4E-5                    0.6087439040569972
6.41E-5                   0.6059077112081008
6.42E-5                   0.6030715184501025
6.429999999999999E-5      0.6002353257879447
6.44E-5                   0.5973991332265697
6.45E-5                   0.5945629407709209
6.46E-5                   0.5917267484259414
6.47E-5                   0.5888905561965749
6.48E-5                   0.5860543640877648
6.489999999999999E-5      0.5832181721044551
6.5E-5                    0.5803819802515898
6.51E-5                   0.5775457885341125
6.52E-5                   0.5747095969569681
6.53E-5                   0.5719288651576808
6.539999999999999E-5      0.5692518214516255
6.549999999999999E-5      0.5665747778309406
6.56E-5                   0.5638977342997463
6.57E-5                   0.5612206908621631
6.58E-5                   0.5585436475223104
6.59E-5                   0.5558666042843089
6.599999999999999E-5      0.553189561152279
6.61E-5                   0.5505125181303411
6.62E-5                   0.5478354752226154
6.63E-5                   0.5451584324332235
6.64E-5                   0.5424813897662859
6.65E-5                   0.5398043472259237
6.659999999999999E-5      0.5371273048162585
6.67E-5                   0.5344712383114646