% Model:              20230225_JW_4_10.mph
% Version:            COMSOL 5.6.0.401
% Date:               Feb 25 2023, 20:26
% Dimension:          1
% Nodes:              1501
% Expressions:        1
% Description:        点图
% X                       Height
0                         5.272431284838295
1.0E-7                    5.271050476844091
2.0E-7                    5.268791827649702
3.0E-7                    5.281954992161094
4.0E-7                    5.3262485900078
5.0E-7                    5.3708161497279985
6.0E-7                    5.398538517276164
7.0E-7                    5.424744903733892
8.0E-7                    5.436869550963909
9.0E-7                    5.457048561367408
1.0E-6                    5.46600007340056
1.1E-6                    5.474781812003124
1.2E-6                    5.477406635252444
1.2999999999999998E-6     5.4791164634340745
1.4E-6                    5.477013326238062
1.5E-6                    5.473514369988992
1.6E-6                    5.466273671375266
1.6999999999999998E-6     5.458051050914473
1.8E-6                    5.447836519325351
1.9E-6                    5.436047054749854
2.0E-6                    5.422787716158308
2.1E-6                    5.408385511526946
2.2E-6                    5.392899330150976
2.3E-6                    5.376433754267983
2.4E-6                    5.359116891206264
2.4999999999999998E-6     5.340871332374893
2.5999999999999997E-6     5.322268567946192
2.7E-6                    5.3028769040231625
2.8E-6                    5.283164592438903
2.8999999999999998E-6     5.262942464130665
3.0E-6                    5.242368272542762
3.1E-6                    5.2215830414413915
3.2E-6                    5.200322526872603
3.2999999999999997E-6     5.178930244595831
3.3999999999999996E-6     5.157427951324839
3.5E-6                    5.135640705327048
3.6E-6                    5.113783198309255
3.6999999999999997E-6     5.09182807328838
3.8E-6                    5.069735240339083
3.9E-6                    5.047606028778921
4.0E-6                    5.025477284150931
4.1E-6                    5.0033457187105155
4.2E-6                    4.981212571016732
4.2999999999999995E-6     4.959079864248544
4.4E-6                    4.936977962967728
4.5E-6                    4.914913713738944
4.6E-6                    4.8928498833948115
4.7E-6                    4.870801304664201
4.8E-6                    4.8487914388048265
4.9E-6                    4.826781958587499
4.9999999999999996E-6     4.804798236807802
5.0999999999999995E-6     4.783022640216875
5.199999999999999E-6      4.761247424149086
5.3E-6                    4.739472595028122
5.4E-6                    4.717960981457908
5.5E-6                    4.696466886712306
5.6E-6                    4.674973134382904
5.7E-6                    4.653479730547197
5.7999999999999995E-6     4.631986681325548
5.899999999999999E-6      4.610493992880555
6.0E-6                    4.589349090245119
6.1E-6                    4.568437775727404
6.2E-6                    4.547526773482135
6.3E-6                    4.526616089039476
6.4E-6                    4.505705727966458
6.5E-6                    4.484795695866429
6.5999999999999995E-6     4.464032168075284
6.699999999999999E-6      4.44368944794278
6.799999999999999E-6      4.42334699352872
6.9E-6                    4.403004809746264
7.0E-6                    4.382662901539781
7.1E-6                    4.3623212738844135
7.2E-6                    4.341979931785629
7.2999999999999996E-6     4.322000973805796
7.3999999999999995E-6     4.302054802488319
7.499999999999999E-6      4.2821088989126
7.6E-6                    4.262163267791886
7.699999999999999E-6      4.242217913866476
7.8E-6                    4.222272841903324
7.899999999999999E-6      4.202603318264359
8.0E-6                    4.183135634843617
8.1E-6                    4.163668178995216
8.2E-6                    4.1442009549756875
8.3E-6                    4.124733967064635
8.4E-6                    4.105267219564405
8.5E-6                    4.086530328242556
8.599999999999999E-6      4.067901787666139
8.7E-6                    4.04927345825885
8.8E-6                    4.030645343718882
8.9E-6                    4.01201744776312
9.0E-6                    3.9936128764466914
9.1E-6                    3.975288862043396
9.2E-6                    3.9569650632337696
9.299999999999999E-6      3.938641483691109
9.4E-6                    3.9203145068953513
9.499999999999999E-6      3.9019593444681737
9.6E-6                    3.8836043629317327
9.7E-6                    3.865249565744399
9.8E-6                    3.8468949563805612
9.9E-6                    3.8288776494726213
9.999999999999999E-6      3.811209993883839
1.01E-5                   3.793542512901008
1.0199999999999999E-5     3.7758752096286496
1.03E-5                   3.7582080871847023
1.0399999999999999E-5     3.7407768392234715
1.05E-5                   3.7233813280764223
1.06E-5                   3.7059859882548793
1.07E-5                   3.6885908227993496
1.08E-5                   3.671253355962578
1.0899999999999999E-5     3.654091628688637
1.1E-5                    3.6369300488137575
1.1099999999999999E-5     3.6197686191140837
1.12E-5                   3.6026073423766443
1.13E-5                   3.585754547811117
1.14E-5                   3.569087173537777
1.15E-5                   3.5524199441555573
1.1599999999999999E-5     3.535752862258456
1.17E-5                   3.519086690457699
1.1799999999999999E-5     3.5027203207250968
1.19E-5                   3.4863540858353783
1.2E-5                    3.469987988240162
1.21E-5                   3.45362203039971
1.22E-5                   3.4373522855858183
1.2299999999999999E-5     3.421239140910956
1.24E-5                   3.405126118398526
1.2499999999999999E-5     3.3890132203280814
1.26E-5                   3.372900448987365
1.2699999999999999E-5     3.357130393900843
1.28E-5                   3.3414696547852247
1.29E-5                   3.3258090336883903
1.3E-5                    3.3101485327433413
1.31E-5                   3.2944616971753438
1.3199999999999999E-5     3.278607166352085
1.33E-5                   3.262752767632913
1.3399999999999999E-5     3.2468985032667286
1.35E-5                   3.2310443755101006
1.3599999999999999E-5     3.215399013052122
1.37E-5                   3.1997587841617645
1.38E-5                   3.1841186197378577
1.3899999999999999E-5     3.1693978837587315
1.4E-5                    3.15631458044829
1.4099999999999999E-5     3.1432313717022295
1.42E-5                   3.129603732154522
1.4299999999999999E-5     3.1147631515212066
1.44E-5                   3.0999227464022243
1.45E-5                   3.084628906728251
1.4599999999999999E-5     3.0691104959911706
1.47E-5                   3.054274945160886
1.4799999999999999E-5     3.0410216855635444
1.49E-5                   3.027522254974265
1.4999999999999999E-5     3.012827605125966
1.51E-5                   2.998312760769191
1.52E-5                   2.9843277778948623
1.53E-5                   2.970395046004465
1.5399999999999998E-5     2.9565091900225005
1.55E-5                   2.942359006567271
1.56E-5                   2.9282199535782256
1.57E-5                   2.9150122768465203
1.5799999999999998E-5     2.901472866546136
1.59E-5                   2.887317558167442
1.6E-5                    2.873635611262009
1.61E-5                   2.8602385465461295
1.62E-5                   2.846886112753452
1.63E-5                   2.833486330295118
1.64E-5                   2.8198352902334576
1.6499999999999998E-5     2.8064951209082354
1.66E-5                   2.7935396888232256
1.67E-5                   2.780275673859122
1.68E-5                   2.766892340196738
1.69E-5                   2.753925303456985
1.7E-5                    2.7409708055076227
1.71E-5                   2.728044861041118
1.7199999999999998E-5     2.715105948194739
1.73E-5                   2.7021561539697356
1.74E-5                   2.689462745730142
1.75E-5                   2.676816629906879
1.76E-5                   2.6640736712441115
1.77E-5                   2.651421814779514
1.78E-5                   2.6389275093771385
1.7899999999999998E-5     2.6264841676390174
1.8E-5                    2.6140694451632083
1.81E-5                   2.6016547772967162
1.82E-5                   2.5892800287027113
1.8299999999999998E-5     2.577076447904463
1.84E-5                   2.5648729204455902
1.85E-5                   2.5526694472893348
1.8599999999999998E-5     2.540619213904065
1.87E-5                   2.5286235959752656
1.88E-5                   2.516628028696334
1.89E-5                   2.5046771490108286
1.8999999999999998E-5     2.4928378842045036
1.91E-5                   2.4809986663282046
1.92E-5                   2.4691594962627166
1.9299999999999998E-5     2.457511999152915
1.94E-5                   2.4459026445402294
1.95E-5                   2.4342933365905473
1.96E-5                   2.4227402044345636
1.9699999999999998E-5     2.4112777023581358
1.98E-5                   2.3998152424061994
1.99E-5                   2.3883528253792283
1.9999999999999998E-5     2.377093649193732
2.01E-5                   2.365849581262951
2.02E-5                   2.354605555973706
2.03E-5                   2.343432092529874
2.0399999999999998E-5     2.3323352537894895
2.05E-5                   2.3212384526728584
2.06E-5                   2.3101476037093374
2.07E-5                   2.2992637445082504
2.0799999999999997E-5     2.2883799239711067
2.09E-5                   2.277496142764425
2.1E-5                    2.2666895211038254
2.1099999999999998E-5     2.255939659031781
2.12E-5                   2.245189830400516
2.13E-5                   2.2344680600013
2.14E-5                   2.2239432278487707
2.1499999999999997E-5     2.2134184310542433
2.16E-5                   2.202893670216623
2.17E-5                   2.1924342204063594
2.1799999999999998E-5     2.1820065181444677
2.19E-5                   2.171578846574056
2.2E-5                    2.1612103136889664
2.21E-5                   2.1510496732437936
2.2199999999999998E-5     2.1408890633320814
2.23E-5                   2.130728484483568
2.24E-5                   2.1205887446474456
2.2499999999999998E-5     2.1104552575003543
2.26E-5                   2.1003218014230374
2.27E-5                   2.0902855582403332
2.28E-5                   2.0804575576724966
2.2899999999999998E-5     2.0706295796300296
2.3E-5                    2.060801624576108
2.31E-5                   2.0510212136921684
2.3199999999999998E-5     2.0412481517972436
2.33E-5                   2.0314751261361934
2.34E-5                   2.021670191848835
2.35E-5                   2.0118202505329257
2.3599999999999998E-5     2.0019703232048163
2.37E-5                   1.9924812879949947
2.38E-5                   1.9838008531083058
2.3899999999999998E-5     1.9751204430559508
2.4E-5                    1.9659851166269204
2.41E-5                   1.9564182512158734
2.42E-5                   1.9468514281274711
2.4299999999999998E-5     1.9370381167286148
2.44E-5                   1.9272241425709973
2.45E-5                   1.918301320213227
2.4599999999999998E-5     1.9097030858331765
2.4699999999999997E-5     1.9006089140117963
2.48E-5                   1.8912972892277304
2.49E-5                   1.8822093675795069
2.4999999999999998E-5     1.8732380703267877
2.51E-5                   1.8643105391362365
2.52E-5                   1.8554099124899164
2.53E-5                   1.8464961776489008
2.5399999999999997E-5     1.837573002650275
2.55E-5                   1.8289025564191879
2.56E-5                   1.8204441705170251
2.5699999999999998E-5     1.8117761433084663
2.58E-5                   1.8029033671292043
2.59E-5                   1.7942281379031706
2.6E-5                    1.7857774163316493
2.6099999999999997E-5     1.7773003945440062
2.62E-5                   1.7687885336574125
2.63E-5                   1.7602940974772938
2.6399999999999998E-5     1.7518266297839689
2.65E-5                   1.7434590618742651
2.66E-5                   1.7352733911140257
2.67E-5                   1.7270431741215893
2.6799999999999998E-5     1.7187167927108407
2.69E-5                   1.7104583033418836
2.7E-5                    1.7023754252332464
2.7099999999999998E-5     1.6942822780265274
2.7199999999999997E-5     1.6861567352603495
2.73E-5                   1.6780544403747284
2.74E-5                   1.670043324114732
2.7499999999999998E-5     1.662048337957801
2.76E-5                   1.6541347806940687
2.77E-5                   1.6462236452349437
2.7799999999999998E-5     1.6383290011529943
2.7899999999999997E-5     1.6304468242186565
2.8E-5                    1.6226913147074902
2.81E-5                   1.6149368685753847
2.8199999999999998E-5     1.6072016653023034
2.83E-5                   1.5994684180928536
2.84E-5                   1.5918737786050918
2.8499999999999998E-5     1.5842791514023982
2.8599999999999997E-5     1.5766845367072433
2.87E-5                   1.56908993474225
2.88E-5                   1.561626395596234
2.8899999999999998E-5     1.5541715103583185
2.9E-5                    1.5467166365285039
2.91E-5                   1.539261774318818
2.9199999999999998E-5     1.5319385259651779
2.9299999999999997E-5     1.5246362813270296
2.94E-5                   1.517334047406475
2.95E-5                   1.5100318244017763
2.9599999999999998E-5     1.5028475886162536
2.97E-5                   1.495695346215196
2.98E-5                   1.4885431141954637
2.99E-5                   1.4813908927435788
2.9999999999999997E-5     1.4743373597593443
3.01E-5                   1.4673239424539029
3.02E-5                   1.460310534519033
3.0299999999999998E-5     1.4532971361306957
3.04E-5                   1.4463711050880315
3.05E-5                   1.4394952291075604
3.06E-5                   1.4326193623376415
3.07E-5                   1.425743504943397
3.0799999999999996E-5     1.4189387161819356
3.09E-5                   1.412189857076497
3.1E-5                    1.4054410062629958
3.11E-5                   1.3986921638980712
3.12E-5                   1.392010026690016
3.13E-5                   1.3853990316447402
3.14E-5                   1.378788044750482
3.15E-5                   1.3721770661538286
3.1599999999999996E-5     1.3656414642805328
3.17E-5                   1.3592151381647695
3.18E-5                   1.3527888191402915
3.1899999999999996E-5     1.3463625073418644
3.2E-5                    1.3399362029043174
3.21E-5                   1.3335099059625497
3.22E-5                   1.327083616651525
3.23E-5                   1.320657335106272
3.24E-5                   1.3142956692959482
3.25E-5                   1.3081210018651206
3.26E-5                   1.3019463406771186
3.2699999999999995E-5     1.2957716858511756
3.28E-5                   1.2895970375065782
3.29E-5                   1.2834223957626711
3.2999999999999996E-5     1.2772477607388513
3.31E-5                   1.2710731325545694
3.32E-5                   1.264923233094557
3.3299999999999996E-5     1.2589832162796322
3.34E-5                   1.2530432048083604
3.35E-5                   1.2471031987867995
3.36E-5                   1.241163198321055
3.37E-5                   1.2352232035172754
3.38E-5                   1.2292832144816574
3.39E-5                   1.2233432313204409
3.4E-5                    1.2174032541399085
3.4099999999999995E-5     1.2116727993338814
3.42E-5                   1.205952458955417
3.43E-5                   1.2002321236313218
3.4399999999999996E-5     1.1945117934562766
3.45E-5                   1.1887914685249972
3.46E-5                   1.1830711489322383
3.4699999999999996E-5     1.17735083477279
3.48E-5                   1.171630526141477
3.49E-5                   1.1660948608375148
3.5E-5                    1.16060462304252
3.51E-5                   1.1551143895401488
3.52E-5                   1.1496241604139659
3.53E-5                   1.1441339357475677
3.54E-5                   1.1386437156245806
3.5499999999999996E-5     1.133153500128662
3.56E-5                   1.1276632893434961
3.57E-5                   1.1223031054690245
3.5799999999999996E-5     1.1170125840110559
3.59E-5                   1.1117220665079808
3.6E-5                    1.1064315530347122
3.6099999999999997E-5     1.101141043666189
3.62E-5                   1.095850538477375
3.63E-5                   1.0905600375432571
3.64E-5                   1.08526954093885
3.65E-5                   1.0800832385702677
3.6599999999999995E-5     1.0750012374646645
3.67E-5                   1.069919239761436
3.68E-5                   1.0648372455266402
3.6899999999999996E-5     1.0597552548263545
3.7E-5                    1.0546732677266766
3.71E-5                   1.049591284293725
3.7199999999999996E-5     1.0445093045936396
3.73E-5                   1.0394951173950988
3.74E-5                   1.0346077542183356
3.75E-5                   1.02972039410035
3.76E-5                   1.0248330371001846
3.77E-5                   1.0199456832768998
3.78E-5                   1.0150583326895741
3.79E-5                   1.0101709853973009
3.7999999999999995E-5     1.0052836414591917
3.81E-5                   1.000431001844643
3.82E-5                   0.9957198803220226
3.8299999999999996E-5     0.9910087615836284
3.84E-5                   0.9862976456820846
3.85E-5                   0.9815865326700307
3.8599999999999996E-5     0.9768754226001196
3.87E-5                   0.9721643155250173
3.88E-5                   0.9674532114974038
3.89E-5                   0.962751410142399
3.9E-5                    0.9582446387843802
3.9099999999999995E-5     0.9537378696301857
3.92E-5                   0.9492311027257928
3.93E-5                   0.9447243381171905
3.9399999999999995E-5     0.9402175758503807
3.95E-5                   0.935710815971374
3.96E-5                   0.9312040585261948
3.9699999999999996E-5     0.9266973035608778
3.98E-5                   0.92230642526712
3.99E-5                   0.9179292734643569
3.9999999999999996E-5     0.913552124245928
4.01E-5                   0.9091749776545931
4.02E-5                   0.9047978337331213
4.03E-5                   0.9004206925242918
4.04E-5                   0.896043554070892
4.0499999999999995E-5     0.891666418415719
4.06E-5                   0.887457869990601
4.07E-5                   0.8833077288694717
4.0799999999999996E-5     0.8791575890001374
4.09E-5                   0.8750074504174585
4.1E-5                    0.8708573131563043
4.1099999999999996E-5     0.8667071772515513
4.12E-5                   0.8625570427380826
4.13E-5                   0.8584069096507904
4.14E-5                   0.8544349829961105
4.15E-5                   0.8505862397209202
4.1599999999999995E-5     0.8467374991206799
4.17E-5                   0.8428887612253868
4.18E-5                   0.8390400260650451
4.1899999999999995E-5     0.8351912936696633
4.2E-5                    0.8311909195855108
4.21E-5                   0.8270490041292111
4.2199999999999996E-5     0.8229070905992846
4.23E-5                   0.8187651790343753
4.24E-5                   0.8146293085055629
4.2499999999999996E-5     0.8105044818282314
4.26E-5                   0.8063796558958771
4.27E-5                   0.8022548307382877
4.28E-5                   0.7984346728734522
4.29E-5                   0.794757523932796
4.2999999999999995E-5     0.7910803773258773
4.31E-5                   0.787323182928518
4.32E-5                   0.7835309611332149
4.3299999999999995E-5     0.779731302031815
4.34E-5                   0.7758993489551209
4.35E-5                   0.7720673977905419
4.3599999999999996E-5     0.7684282068821127
4.37E-5                   0.7647914633106835
4.38E-5                   0.7611354474469894
4.3899999999999996E-5     0.7574844681441082
4.4E-5                    0.753850915034296
4.41E-5                   0.7502220368735358
4.42E-5                   0.7465990608678984
4.43E-5                   0.7429928203319361
4.4399999999999995E-5     0.7393952177456942
4.45E-5                   0.7358696242807842
4.46E-5                   0.7323522937066511
4.4699999999999996E-5     0.7288177403522328
4.48E-5                   0.7252987610429491
4.49E-5                   0.7218140101171375
4.4999999999999996E-5     0.7183460541683904
4.51E-5                   0.7148929660349416
4.52E-5                   0.7114524311949695
4.5299999999999997E-5     0.7080161242775377
4.54E-5                   0.7046267901824114
4.5499999999999995E-5     0.7012410732718425
4.56E-5                   0.6978640507713284
4.57E-5                   0.694503265773412
4.5799999999999995E-5     0.6911667129294446
4.59E-5                   0.6878451231501951
4.6E-5                    0.6845327458774743
4.6099999999999996E-5     0.6812431241004075
4.62E-5                   0.6779597418919985
4.63E-5                   0.674707600922374
4.6399999999999996E-5     0.6714667622869027
4.65E-5                   0.6682561675520003
4.66E-5                   0.6650455737361762
4.67E-5                   0.6618349808560782
4.68E-5                   0.6586696242986156
4.6899999999999995E-5     0.655522975616663
4.7E-5                    0.6523763278095752
4.71E-5                   0.6492369373184961
4.7199999999999995E-5     0.6461410907593776
4.73E-5                   0.6430452449486875
4.74E-5                   0.639949399901366
4.7499999999999996E-5     0.6368845280474708
4.76E-5                   0.6338422470263221
4.77E-5                   0.6307999668454677
4.7799999999999996E-5     0.6277583858117716
4.79E-5                   0.6247672511063905
4.8E-5                    0.621776117052821
4.81E-5                   0.6187849836645076
4.82E-5                   0.6158165714452766
4.8299999999999995E-5     0.6128760353452027
4.84E-5                   0.6099355000005093
4.85E-5                   0.6069949654239609
4.8599999999999995E-5     0.6040991242491207
4.87E-5                   0.6012091218796575
4.88E-5                   0.5983191201232477
4.8899999999999996E-5     0.5954536345286859
4.9E-5                    0.5926402768421465
4.91E-5                   0.5898269197683076
4.9199999999999997E-5     0.5870135633183492
4.93E-5                   0.5842002075034517
4.9399999999999995E-5     0.5813868523347967
4.95E-5                   0.578573497823567
4.96E-5                   0.5757787532145805
4.9699999999999995E-5     0.5730629957758371
4.98E-5                   0.5703472388520808
4.99E-5                   0.5676314824533498
4.9999999999999996E-5     0.5649157265896835
5.01E-5                   0.5621999712711212
5.02E-5                   0.5594842165077035
5.0299999999999996E-5     0.5567739766132701
5.04E-5                   0.5541479072041892
5.05E-5                   0.5515218382678175
5.06E-5                   0.5488957698132433
5.07E-5                   0.5462697018495544
5.0799999999999995E-5     0.5436436343858407
5.09E-5                   0.5410175674311919
5.1E-5                    0.5383915009946993
5.1099999999999995E-5     0.5358871221801818
5.12E-5                   0.5333915809186479
5.13E-5                   0.5308960400626882
5.1399999999999996E-5     0.5284004996200916
5.15E-5                   0.5259049595986461
5.16E-5                   0.5234094200061419
5.1699999999999996E-5     0.5209138808503686
5.18E-5                   0.5184183421391165
5.1899999999999994E-5     0.5159228038801772
5.2E-5                    0.513427266081342
5.21E-5                   0.5109317287504029
5.2199999999999995E-5     0.5084361918951532
5.23E-5                   0.5059406555233856
5.24E-5                   0.5034451196428944
5.2499999999999995E-5     0.5010604640664033
5.26E-5                   0.49872946025510084
5.27E-5                   0.49639845674239136
5.2799999999999996E-5     0.49406745353462345
5.29E-5                   0.4917364506381459
5.3E-5                    0.4894054480593082
5.3099999999999996E-5     0.48707444580446035
5.32E-5                   0.4847434438799523
5.3299999999999995E-5     0.48241244229213504
5.34E-5                   0.48008144104735906
5.35E-5                   0.4777504401519764
5.3599999999999995E-5     0.47541943961233873
5.37E-5                   0.47308843943479806
5.38E-5                   0.47075743962570754
5.3899999999999996E-5     0.46849100667869176
5.4E-5                    0.46631539030733965
5.41E-5                   0.4641397741780622
5.4199999999999996E-5     0.46196415829601556
5.43E-5                   0.45978854266635627
5.4399999999999994E-5     0.4576129272942415
5.4499999999999997E-5     0.45543731218482814
5.46E-5                   0.453261697343274
5.4699999999999995E-5     0.4510860827747369
5.48E-5                   0.44891046848437455
5.49E-5                   0.44673485447734584
5.4999999999999995E-5     0.4445592407588092
5.51E-5                   0.44238362733392356
5.52E-5                   0.4402080142078482
5.5299999999999996E-5     0.4380544798916066
5.54E-5                   0.43601936031923705
5.55E-5                   0.4339842409554666
5.5599999999999996E-5     0.43194912180451916
5.57E-5                   0.4299140028706184
5.5799999999999994E-5     0.4278788841579886
5.59E-5                   0.4258437656708539
5.6E-5                    0.4238086474134389
5.6099999999999995E-5     0.42177352938996854
5.62E-5                   0.4197384116046674
5.63E-5                   0.4177032940617609
5.6399999999999995E-5     0.4156681767654743
5.65E-5                   0.41363305972003295
5.66E-5                   0.4115979429296629
5.6699999999999996E-5     0.4095628263985899
5.68E-5                   0.40765363050833725
5.69E-5                   0.405758617617969
5.6999999999999996E-5     0.4038636048862874
5.71E-5                   0.40196859231669774
5.7199999999999994E-5     0.4000735799126059
5.73E-5                   0.39817856767741755
5.74E-5                   0.39628355561453876
5.7499999999999995E-5     0.39438854372737603
5.76E-5                   0.39249353201933523
5.77E-5                   0.39059852049382304
5.7799999999999995E-5     0.3887035091542461
5.79E-5                   0.38680849800401124
5.8E-5                    0.3849134870465251
5.8099999999999996E-5     0.38301847628519503
5.82E-5                   0.3811998132424763
5.8299999999999994E-5     0.37942402372491535
5.8399999999999997E-5     0.37764823434742517
5.85E-5                   0.3758724451128141
5.8599999999999995E-5     0.3740966560238911
5.87E-5                   0.372320867083465
5.88E-5                   0.37054507829434435
5.8899999999999995E-5     0.36876928965933875
5.9E-5                    0.36699350118125684
5.91E-5                   0.36521771286290794
5.9199999999999996E-5     0.36344192470710146
5.93E-5                   0.3616661367166467
5.94E-5                   0.35989034889435345
5.9499999999999996E-5     0.35811456124303115
5.96E-5                   0.3563855373128839
5.9699999999999994E-5     0.35473216586780537
5.98E-5                   0.35307879453058566
5.99E-5                   0.3514254233034827
5.9999999999999995E-5     0.34977205218875435
6.01E-5                   0.3481186811886584
6.02E-5                   0.346465310305453
6.0299999999999995E-5     0.3448119395413963
6.04E-5                   0.34315856889874624
6.05E-5                   0.3415051983797611
6.0599999999999996E-5     0.33985182798669955
6.07E-5                   0.3381984577218194
6.08E-5                   0.33654508758737944
6.0899999999999996E-5     0.33489171758563835
6.1E-5                    0.3332515219250318
6.11E-5                   0.3317047189794658
6.12E-5                   0.33015791611986467
6.13E-5                   0.32861111334808735
6.14E-5                   0.32706431066599273
6.149999999999999E-5      0.32551750807544005
6.159999999999999E-5      0.323970705578288
6.17E-5                   0.32242390317639574
6.18E-5                   0.3208771008716226
6.19E-5                   0.31933029866582774
6.2E-5                    0.3177834965608703
6.209999999999999E-5      0.31623669455861
6.22E-5                   0.31468989266090563
6.23E-5                   0.31314309086961684
6.24E-5                   0.3115962891866031
6.25E-5                   0.3101365603269736
6.26E-5                   0.30869039274051185
6.269999999999999E-5      0.3072442252365668
6.28E-5                   0.30579805781664693
6.29E-5                   0.3043518904822619
6.3E-5                    0.30290572323492093
6.31E-5                   0.3014595560761333
6.319999999999999E-5      0.30001338900740854
6.33E-5                   0.2985672220302557
6.34E-5                   0.29712105514618425
6.35E-5                   0.29567488835670386
6.36E-5                   0.2942287216633238
6.37E-5                   0.29278255506755363
6.379999999999999E-5      0.29133638857090305
6.39E-5                   0.28995301212171465
6.4E-5                    0.28861031259082287
6.41E-5                   0.2872676131040513
6.42E-5                   0.28592491366261447
6.429999999999999E-5      0.28458221426772756
6.44E-5                   0.28323951492060445
6.45E-5                   0.2818968156224603
6.46E-5                   0.2805541163745096
6.47E-5                   0.2792114171779672
6.48E-5                   0.2778687180340479
6.489999999999999E-5      0.2765260189439665
6.5E-5                    0.2751833199089378
6.51E-5                   0.2738406209301764
6.52E-5                   0.27249792200889744
6.53E-5                   0.27118028484817946
6.539999999999999E-5      0.26990950341148
6.549999999999999E-5      0.2686387220473304
6.56E-5                   0.2673679407567594
6.57E-5                   0.266097159540796
6.58E-5                   0.2648263784004687
6.59E-5                   0.2635555973368064
6.599999999999999E-5      0.2622848163508383
6.61E-5                   0.2610140354435925
6.62E-5                   0.2597432546160984
6.63E-5                   0.2584724738693846