% Model:              20230225_JW_4_10.mph
% Version:            COMSOL 5.6.0.401
% Date:               Feb 25 2023, 20:24
% Dimension:          1
% Nodes:              1501
% Expressions:        1
% Description:        点图
% X                       Height
0                         26.157189744116533
1.0E-7                    26.117092496980593
2.0E-7                    26.04240291055536
3.0E-7                    25.968885212983146
4.0E-7                    25.894457481493557
5.0E-7                    25.821722288972516
6.0E-7                    25.752718149704418
7.0E-7                    25.68673904792203
8.0E-7                    25.617658000485235
9.0E-7                    25.536760403931492
1.0E-6                    25.45590743979006
1.1E-6                    25.375460643285184
1.2E-6                    25.28995221886085
1.2999999999999998E-6     25.205624291273196
1.4E-6                    25.119720641122676
1.5E-6                    25.03282481546453
1.6E-6                    24.94564360479985
1.6999999999999998E-6     24.857943551200705
1.8E-6                    24.769522949701418
1.9E-6                    24.68103866007312
2.0E-6                    24.592554413311333
2.1E-6                    24.503705182359884
2.2E-6                    24.414820850777033
2.3E-6                    24.325792231863733
2.4E-6                    24.236864176509822
2.4999999999999998E-6     24.147883930733226
2.5999999999999997E-6     24.059040960955524
2.7E-6                    23.970152185713204
2.8E-6                    23.881269418931268
2.8999999999999998E-6     23.7924145345579
3.0E-6                    23.703740549277672
3.1E-6                    23.615138455925933
3.2E-6                    23.526534835151462
3.2999999999999997E-6     23.438107316182155
3.3999999999999996E-6     23.34982694469778
3.5E-6                    23.26151276178032
3.6E-6                    23.173347470798003
3.6999999999999997E-6     23.085433116539548
3.8E-6                    22.997712985687368
3.9E-6                    22.91004463262725
4.0E-6                    22.822376279567127
4.1E-6                    22.734876319977634
4.2E-6                    22.64747985605175
4.2999999999999995E-6     22.56008339212587
4.4E-6                    22.472873227522637
4.5E-6                    22.385891527125054
4.6E-6                    22.298909826727467
4.7E-6                    22.21203325319793
4.8E-6                    22.125428359901605
4.9E-6                    22.038823466605276
4.9999999999999996E-6     21.95228920375943
5.0999999999999995E-6     21.86633338150923
5.199999999999999E-6      21.780377559259026
5.3E-6                    21.694421737008827
5.4E-6                    21.609240251423646
5.5E-6                    21.524109383696864
5.6E-6                    21.43897851597007
5.7E-6                    21.353847648243285
5.7999999999999995E-6     21.2687167805165
5.899999999999999E-6      21.18358591278971
6.0E-6                    21.099022333760875
6.1E-6                    21.014839650447897
6.2E-6                    20.93065696713492
6.3E-6                    20.846474283821944
6.4E-6                    20.76229160050896
6.5E-6                    20.67810891719598
6.5999999999999995E-6     20.594024488720237
6.699999999999999E-6      20.510222730843612
6.799999999999999E-6      20.426420972966987
6.9E-6                    20.342619215090366
7.0E-6                    20.258817457213745
7.1E-6                    20.175015699337123
7.2E-6                    20.0912139414605
7.2999999999999996E-6     20.01004050922318
7.3999999999999995E-6     19.929103146176477
7.499999999999999E-6      19.848165783129776
7.6E-6                    19.767228420083075
7.699999999999999E-6      19.686291057036374
7.8E-6                    19.60535369398967
7.899999999999999E-6      19.524280875051613
8.0E-6                    19.443108847751198
8.1E-6                    19.361936820450783
8.2E-6                    19.28076479315037
8.3E-6                    19.199592765849957
8.4E-6                    19.11842073854955
8.5E-6                    19.038293537780568
8.599999999999999E-6      18.95832119774989
8.7E-6                    18.87834885771921
8.8E-6                    18.798376517688528
8.9E-6                    18.718404177657845
9.0E-6                    18.639605141219988
9.1E-6                    18.56122863226944
9.2E-6                    18.482852123318892
9.299999999999999E-6      18.404475614368344
9.4E-6                    18.326190598984496
9.499999999999999E-6      18.24862295393538
9.6E-6                    18.17105530888626
9.7E-6                    18.09348766383714
9.8E-6                    18.015920018788027
9.9E-6                    17.938922639928016
9.999999999999999E-6      17.862516440473858
1.01E-5                   17.7861102410197
1.0199999999999999E-5     17.709704041565537
1.03E-5                   17.63329784211138
1.0399999999999999E-5     17.557900380385046
1.05E-5                   17.482655143981304
1.06E-5                   17.407409907577566
1.07E-5                   17.332164671173825
1.08E-5                   17.2572559813986
1.0899999999999999E-5     17.183374588587878
1.1E-5                    17.10949319577716
1.1099999999999999E-5     17.03561180296644
1.12E-5                   16.961730410155713
1.13E-5                   16.887869967025615
1.14E-5                   16.814022112668404
1.15E-5                   16.740174258311193
1.1599999999999999E-5     16.66632640395398
1.17E-5                   16.592488321552622
1.1799999999999999E-5     16.52250317617364
1.19E-5                   16.452518030794657
1.2E-5                    16.382532885415674
1.21E-5                   16.312547740036692
1.22E-5                   16.241046742634573
1.2299999999999999E-5     16.167076844291472
1.24E-5                   16.093106945948364
1.2499999999999999E-5     16.019137047605266
1.26E-5                   15.945167149262165
1.2699999999999999E-5     15.87897994944719
1.28E-5                   15.815273451775523
1.29E-5                   15.751566954103852
1.3E-5                    15.687860456432182
1.31E-5                   15.623165711851101
1.3199999999999999E-5     15.552202271270495
1.33E-5                   15.481238830689888
1.3399999999999999E-5     15.410275390109282
1.35E-5                   15.339311949528678
1.3599999999999999E-5     15.269042857753698
1.37E-5                   15.198790640161167
1.38E-5                   15.128538422568631
1.3899999999999999E-5     15.06042151129218
1.4E-5                    14.996107495808417
1.4099999999999999E-5     14.931793480324659
1.42E-5                   14.86623307879713
1.4299999999999999E-5     14.797895996973356
1.44E-5                   14.729558915149585
1.45E-5                   14.663943525898862
1.4599999999999999E-5     14.599675841906429
1.47E-5                   14.534994327382396
1.4799999999999999E-5     14.46935393603038
1.49E-5                   14.403988829744353
1.4999999999999999E-5     14.339959648677288
1.51E-5                   14.275975882191887
1.52E-5                   14.21212599049933
1.53E-5                   14.148106281376585
1.5399999999999998E-5     14.08393446439204
1.55E-5                   14.020634529761058
1.56E-5                   13.957581705203976
1.57E-5                   13.894911874784995
1.5799999999999998E-5     13.832348143609373
1.59E-5                   13.769981355969168
1.6E-5                    13.707710735864307
1.61E-5                   13.645497984969825
1.62E-5                   13.58415884768177
1.63E-5                   13.522931016603458
1.64E-5                   13.461763713051482
1.6499999999999998E-5     13.400731946017848
1.66E-5                   13.339867908444349
1.67E-5                   13.279619654530945
1.68E-5                   13.219609537333971
1.69E-5                   13.159576682508845
1.7E-5                    13.09970737837689
1.71E-5                   13.040281611719859
1.7199999999999998E-5     12.98112314547946
1.73E-5                   12.922188981380105
1.74E-5                   12.86340294666017
1.75E-5                   12.80470693679322
1.76E-5                   12.746573084910725
1.77E-5                   12.688550943465785
1.78E-5                   12.630722027967323
1.7899999999999998E-5     12.573302399508615
1.8E-5                    12.51611245328467
1.81E-5                   12.458922507060732
1.82E-5                   12.40189050378058
1.8299999999999998E-5     12.345536466628433
1.84E-5                   12.289182429476284
1.85E-5                   12.232828392324137
1.8599999999999998E-5     12.177023754177512
1.87E-5                   12.121414813913887
1.88E-5                   12.065805873650266
1.89E-5                   12.010438266368617
1.8999999999999998E-5     11.955673864237223
1.91E-5                   11.90090946210583
1.92E-5                   11.846145059974438
1.9299999999999998E-5     11.791973076798914
1.94E-5                   11.737918870963325
1.95E-5                   11.683864665127736
1.96E-5                   11.630149552016125
1.9699999999999998E-5     11.57698170740623
1.98E-5                   11.523813862796331
1.99E-5                   11.470646018186434
1.9999999999999998E-5     11.418052665448457
2.01E-5                   11.36550190900522
2.02E-5                   11.312951152561984
2.03E-5                   11.260845992166546
2.0399999999999998E-5     11.209224767224503
2.05E-5                   11.157603542282455
2.06E-5                   11.105999451517254
2.07E-5                   11.054994964405063
2.0799999999999997E-5     11.003990477292875
2.09E-5                   10.95298599018068
2.1E-5                    10.902410458858993
2.1099999999999998E-5     10.852150445141374
2.12E-5                   10.801890431423754
2.13E-5                   10.751760727349987
2.14E-5                   10.702546606398963
2.1499999999999997E-5     10.653332485447935
2.16E-5                   10.60411836449691
2.17E-5                   10.55480613180932
2.1799999999999998E-5     10.505446227474103
2.19E-5                   10.456086323138885
2.2E-5                    10.40728389178542
2.21E-5                   10.360441913852169
2.2199999999999998E-5     10.313599935918912
2.23E-5                   10.266757957985655
2.24E-5                   10.218148707084946
2.2499999999999998E-5     10.169010992649211
2.26E-5                   10.119873278213475
2.27E-5                   10.0723643564747
2.28E-5                   10.028345228024142
2.2899999999999998E-5     9.984326099573584
2.3E-5                    9.940306971123025
2.31E-5                   9.892556149975857
2.3199999999999998E-5     9.844230972379608
2.33E-5                   9.79590579478336
2.34E-5                   9.748862359732923
2.35E-5                   9.703625559937285
2.3599999999999998E-5     9.658388760141646
2.37E-5                   9.613785302114628
2.38E-5                   9.570600903743003
2.3899999999999998E-5     9.52741650537138
2.4E-5                    9.483157159486458
2.41E-5                   9.437878072959574
2.42E-5                   9.392598986432688
2.4299999999999998E-5     9.349627728796476
2.44E-5                   9.306662694289033
2.45E-5                   9.263064410773028
2.4599999999999998E-5     9.219235497946233
2.4699999999999997E-5     9.176226989472159
2.48E-5                   9.133578212354905
2.49E-5                   9.091015771844324
2.4999999999999998E-5     9.048498339990232
2.51E-5                   9.00602739264016
2.52E-5                   8.96358499954318
2.53E-5                   8.921519711582674
2.5399999999999997E-5     8.879725687772265
2.55E-5                   8.838235094061094
2.56E-5                   8.796999083571142
2.5699999999999998E-5     8.755769640871074
2.58E-5                   8.71454661235288
2.59E-5                   8.673524715432544
2.6E-5                    8.632731396658714
2.6099999999999997E-5     8.592158254369615
2.62E-5                   8.551876722208
2.63E-5                   8.511705049708251
2.6399999999999998E-5     8.471703515257238
2.65E-5                   8.431921390633933
2.66E-5                   8.392538771911171
2.67E-5                   8.353246071237072
2.6799999999999998E-5     8.314147415215
2.69E-5                   8.275065914987
2.7E-5                    8.236028792917553
2.7099999999999998E-5     8.197119475550245
2.7199999999999997E-5     8.158612774093669
2.73E-5                   8.120153934864497
2.74E-5                   8.081882894886773
2.7499999999999998E-5     8.043666589007081
2.76E-5                   8.00572677896997
2.77E-5                   7.967844266609604
2.7799999999999998E-5     7.930354228750914
2.7899999999999997E-5     7.892885024148621
2.8E-5                    7.855627655308011
2.81E-5                   7.818392292495946
2.8199999999999998E-5     7.781560671344121
2.83E-5                   7.744736331652636
2.84E-5                   7.708430994749069
2.8499999999999998E-5     7.672125657845502
2.8599999999999997E-5     7.635820320941934
2.87E-5                   7.5995149840383664
2.88E-5                   7.56387091153564
2.8899999999999998E-5     7.528270448977157
2.9E-5                    7.492669986418672
2.91E-5                   7.4570695238601905
2.9199999999999998E-5     7.42202117860353
2.9299999999999997E-5     7.387060906834145
2.94E-5                   7.35210063506476
2.95E-5                   7.317140363295375
2.9599999999999998E-5     7.282724960195706
2.97E-5                   7.248457269833482
2.98E-5                   7.21418957947126
2.99E-5                   7.179921889109036
2.9999999999999997E-5     7.146132475089779
3.01E-5                   7.112537450073417
3.02E-5                   7.078942425057057
3.0299999999999998E-5     7.045347400040696
3.04E-5                   7.012132381048389
3.05E-5                   6.979135496765426
3.06E-5                   6.946138612482465
3.07E-5                   6.9131417281995
3.0799999999999996E-5     6.880497110480372
3.09E-5                   6.8481297149984925
3.1E-5                    6.815762319516616
3.11E-5                   6.783394924034739
3.12E-5                   6.751312672759563
3.13E-5                   6.71953453672401
3.14E-5                   6.68775640068846
3.15E-5                   6.655978264652906
3.1599999999999996E-5     6.624575916938728
3.17E-5                   6.593718384081308
3.18E-5                   6.562860851223887
3.1899999999999996E-5     6.532003318366469
3.2E-5                    6.501145785509047
3.21E-5                   6.4702882526516285
3.22E-5                   6.439430719794208
3.23E-5                   6.408573186936788
3.24E-5                   6.378010602663951
3.25E-5                   6.34830167481094
3.26E-5                   6.3185927469579255
3.2699999999999995E-5     6.288883819104913
3.28E-5                   6.2591748912519
3.29E-5                   6.229465963398885
3.2999999999999996E-5     6.199757035545874
3.31E-5                   6.170048107692859
3.32E-5                   6.140453623658808
3.3299999999999996E-5     6.111830715797167
3.34E-5                   6.083207807935523
3.35E-5                   6.0545849000738805
3.36E-5                   6.025961992212239
3.37E-5                   5.997339084350595
3.38E-5                   5.968716176488954
3.39E-5                   5.9400932686273125
3.4E-5                    5.9114703607656685
3.4099999999999995E-5     5.883900975014977
3.42E-5                   5.856382423107782
3.43E-5                   5.828863871200585
3.4399999999999996E-5     5.80134531929339
3.45E-5                   5.773826767386194
3.46E-5                   5.746308215478999
3.4699999999999996E-5     5.718789663571805
3.48E-5                   5.691271111664609
3.49E-5                   5.664533087900694
3.5E-5                    5.637987083682888
3.51E-5                   5.61144107946508
3.52E-5                   5.584895075247272
3.53E-5                   5.5583490710294665
3.54E-5                   5.5318030668116585
3.5499999999999996E-5     5.505257062593852
3.56E-5                   5.478711058376044
3.57E-5                   5.452856193161905
3.5799999999999996E-5     5.427371600430354
3.59E-5                   5.401887007698803
3.6E-5                    5.376402414967252
3.6099999999999997E-5     5.350917822235702
3.62E-5                   5.32543322950415
3.63E-5                   5.299948636772599
3.64E-5                   5.274464044041048
3.65E-5                   5.249411884058228
3.6599999999999995E-5     5.224792604284957
3.67E-5                   5.200173324511685
3.68E-5                   5.175554044738411
3.6899999999999996E-5     5.150934764965139
3.7E-5                    5.126315485191866
3.71E-5                   5.101696205418592
3.7199999999999996E-5     5.07707692564532
3.73E-5                   5.0528126046898825
3.74E-5                   5.029212349259484
3.75E-5                   5.005612093829089
3.76E-5                   4.982011838398692
3.77E-5                   4.958411582968293
3.78E-5                   4.934811327537896
3.79E-5                   4.911211072107499
3.7999999999999995E-5     4.887610816677102
3.81E-5                   4.864171972503189
3.82E-5                   4.841391385536264
3.8299999999999996E-5     4.818610798569339
3.84E-5                   4.795830211602414
3.85E-5                   4.77304962463549
3.8599999999999996E-5     4.750269037668566
3.87E-5                   4.727488450701641
3.88E-5                   4.704707863734716
3.89E-5                   4.6819633051374066
3.9E-5                    4.659974320848525
3.9099999999999995E-5     4.637985336559646
3.92E-5                   4.6159963522707645
3.93E-5                   4.594007367981884
3.9399999999999995E-5     4.572018383693005
3.95E-5                   4.550029399404123
3.96E-5                   4.5280404151152425
3.9699999999999996E-5     4.506051430826363
3.98E-5                   4.4851625617097275
3.99E-5                   4.464403988469166
3.9999999999999996E-5     4.443645415228609
4.01E-5                   4.422886841988047
4.02E-5                   4.402128268747487
4.03E-5                   4.381369695506929
4.04E-5                   4.360611122266368
4.0499999999999995E-5     4.339852549025809
4.06E-5                   4.318841426475567
4.07E-5                   4.297742808499199
4.0799999999999996E-5     4.276644190522832
4.09E-5                   4.255545572546464
4.1E-5                    4.234446954570095
4.1099999999999996E-5     4.213348336593729
4.12E-5                   4.1922497186173615
4.13E-5                   4.171151100640993
4.14E-5                   4.151106573486097
4.15E-5                   4.131790667584566
4.1599999999999995E-5     4.112474761683037
4.17E-5                   4.093158855781508
4.18E-5                   4.073842949879979
4.1899999999999995E-5     4.0545270439784495
4.2E-5                    4.035553278794664
4.21E-5                   4.016898864431289
4.2199999999999996E-5     3.9982444500679155
4.23E-5                   3.979590035704541
4.24E-5                   3.960793208868733
4.2499999999999996E-5     3.9417359728607204
4.26E-5                   3.922678736852706
4.27E-5                   3.9036215008446917
4.28E-5                   3.8851406063686564
4.29E-5                   3.8669302398025827
4.2999999999999995E-5     3.8487198732365107
4.31E-5                   3.83044570257462
4.32E-5                   3.812143612492904
4.3299999999999995E-5     3.7938804329664673
4.34E-5                   3.775786199708329
4.35E-5                   3.7576919664501918
4.3599999999999996E-5     3.739807482278766
4.37E-5                   3.7219268957862237
4.38E-5                   3.704214227318333
4.3899999999999996E-5     3.6865260506224846
4.4E-5                    3.6689226215043753
4.41E-5                   3.651342922460153
4.42E-5                   3.633793192816867
4.43E-5                   3.616359127183516
4.4399999999999995E-5     3.598984750337358
4.45E-5                   3.5817871797555902
4.46E-5                   3.5646231665894934
4.4699999999999996E-5     3.5475432720020836
4.48E-5                   3.5305053018879597
4.49E-5                   3.513559473656103
4.4999999999999996E-5     3.4967122612515857
4.51E-5                   3.4799523544585296
4.52E-5                   3.463271058266013
4.5299999999999997E-5     3.4466162291479687
4.54E-5                   3.4301098725232477
4.5499999999999995E-5     3.413636609768687
4.56E-5                   3.397287202759531
4.57E-5                   3.3809843611584243
4.5799999999999995E-5     3.364751011991376
4.59E-5                   3.348611650911095
4.6E-5                    3.3325301579556434
4.6099999999999996E-5     3.316564271621793
4.62E-5                   3.3006276741314133
4.63E-5                   3.2848079386802325
4.6399999999999996E-5     3.269053094067511
4.65E-5                   3.2534718971143826
4.66E-5                   3.2378907001612536
4.67E-5                   3.2223095032081264
4.68E-5                   3.2069297716297114
4.6899999999999995E-5     3.191633355669099
4.7E-5                    3.1763369397084857
4.71E-5                   3.161077384974316
4.7199999999999995E-5     3.146039020820337
4.73E-5                   3.1310006566663566
4.74E-5                   3.1159622925123776
4.7499999999999996E-5     3.1010705885321697
4.76E-5                   3.0862858524880057
4.77E-5                   3.0715011164438404
4.7799999999999996E-5     3.0567197568410953
4.79E-5                   3.042182315754517
4.8E-5                    3.027644874667939
4.81E-5                   3.0131074335813626
4.82E-5                   2.9986812636492792
4.8299999999999995E-5     2.9843916104399715
4.84E-5                   2.970101957230663
4.85E-5                   2.9558123040213538
4.8599999999999995E-5     2.9417339317325886
4.87E-5                   2.927683159052777
4.88E-5                   2.9136323863729654
4.8899999999999996E-5     2.89970214247172
4.9E-5                    2.886028178464003
4.91E-5                   2.872354214456286
4.9199999999999997E-5     2.85868025044857
4.93E-5                   2.845006286440853
4.9399999999999995E-5     2.8313323224331373
4.95E-5                   2.8176583584254193
4.96E-5                   2.8040736938470774
4.9699999999999995E-5     2.7908680592694317
4.98E-5                   2.7776624246917843
4.99E-5                   2.7644567901141377
4.9999999999999996E-5     2.751251155536491
5.01E-5                   2.7380455209588437
5.02E-5                   2.724839886381197
5.0299999999999996E-5     2.7116610204893
5.04E-5                   2.698890750051383
5.05E-5                   2.686120479613466
5.06E-5                   2.6733502091755503
5.07E-5                   2.6605799387376337
5.0799999999999995E-5     2.6478096682997174
5.09E-5                   2.6350393978618007
5.1E-5                    2.622269127423884
5.1099999999999995E-5     2.610088619880772
5.12E-5                   2.5979509420517943
5.13E-5                   2.585813264222817
5.1399999999999996E-5     2.5736755863938403
5.15E-5                   2.561537908564863
5.16E-5                   2.5494002307358854
5.1699999999999996E-5     2.537262552906909
5.18E-5                   2.5251248750779314
5.1899999999999994E-5     2.512987197248955
5.2E-5                    2.500849519419978
5.21E-5                   2.488711841591
5.2199999999999995E-5     2.4765741637620238
5.23E-5                   2.464436485933046
5.24E-5                   2.4522988081040693
5.2499999999999995E-5     2.4407000999903445
5.26E-5                   2.4293621832833563
5.27E-5                   2.4180242665763676
5.2799999999999996E-5     2.4066863498693802
5.29E-5                   2.395348433162392
5.3E-5                    2.3840105164554033
5.3099999999999996E-5     2.372672599748416
5.32E-5                   2.3613346830414272
5.3299999999999995E-5     2.34999676633444
5.34E-5                   2.338658849627451
5.35E-5                   2.3273209329204634
5.3599999999999995E-5     2.3159830162134756
5.37E-5                   2.3046450995064873
5.38E-5                   2.293307182799499
5.3899999999999996E-5     2.2822775111467846
5.4E-5                    2.2716814030268906
5.41E-5                   2.2610852949069975
5.4199999999999996E-5     2.250489186787104
5.43E-5                   2.23989307866721
5.4399999999999994E-5     2.229296970547317
5.4499999999999997E-5     2.218700862427423
5.46E-5                   2.208104754307529
5.4699999999999995E-5     2.197508646187636
5.48E-5                   2.186912538067742
5.49E-5                   2.176316429947848
5.4999999999999995E-5     2.165720321827955
5.51E-5                   2.1551242137080613
5.52E-5                   2.1445281055881678
5.5299999999999996E-5     2.134043690101059
5.54E-5                   2.1241583199861407
5.55E-5                   2.1142729498712223
5.5599999999999996E-5     2.1043875797563043
5.57E-5                   2.0945022096413854
5.5799999999999994E-5     2.0846168395264675
5.59E-5                   2.074731469411549
5.6E-5                    2.0648460992966307
5.6099999999999995E-5     2.0549607291817127
5.62E-5                   2.0450753590667943
5.63E-5                   2.035189988951876
5.6399999999999995E-5     2.0253046188369574
5.65E-5                   2.015419248722039
5.66E-5                   2.0055338786071206
5.6699999999999996E-5     1.9956485084922027
5.68E-5                   1.9863307687249616
5.69E-5                   1.9770769630879212
5.6999999999999996E-5     1.9678231574508815
5.71E-5                   1.9585693518138412
5.7199999999999994E-5     1.9493155461768013
5.73E-5                   1.940061740539761
5.74E-5                   1.9308079349027207
5.7499999999999995E-5     1.9215541292656806
5.76E-5                   1.9123003236286407
5.77E-5                   1.9030465179916
5.7799999999999995E-5     1.89379271235456
5.79E-5                   1.8845389067175196
5.8E-5                    1.8752851010804792
5.8099999999999996E-5     1.8660312954434395
5.82E-5                   1.857183048252408
5.8299999999999994E-5     1.8485625446739933
5.8399999999999997E-5     1.8399420410955774
5.85E-5                   1.8313215375171616
5.8599999999999995E-5     1.8227010339387466
5.87E-5                   1.8140805303603311
5.88E-5                   1.8054600267819156
5.8899999999999995E-5     1.7968395232035004
5.9E-5                    1.7882190196250847
5.91E-5                   1.7795985160466692
5.9199999999999996E-5     1.770978012468254
5.93E-5                   1.7623575088898382
5.94E-5                   1.7537370053114225
5.9499999999999996E-5     1.7451165017330077
5.96E-5                   1.7367039376014868
5.9699999999999994E-5     1.7286277703062698
5.98E-5                   1.7205516030110521
5.99E-5                   1.7124754357158343
5.9999999999999995E-5     1.7043992684206173
6.01E-5                   1.6963231011253996
6.02E-5                   1.688246933830182
6.0299999999999995E-5     1.680170766534965
6.04E-5                   1.6720945992397471
6.05E-5                   1.664018431944529
6.0599999999999996E-5     1.655942264649312
6.07E-5                   1.6478660973540944
6.08E-5                   1.6397899300588767
6.0899999999999996E-5     1.6317137627636598
6.1E-5                    1.6237056337083224
6.11E-5                   1.6161798311447688
6.12E-5                   1.6086540285812148
6.13E-5                   1.6011282260176607
6.14E-5                   1.5936024234541066
6.149999999999999E-5      1.586076620890554
6.159999999999999E-5      1.5785508183269998
6.17E-5                   1.5710250157634464
6.18E-5                   1.563499213199892
6.19E-5                   1.5559734106363383
6.2E-5                    1.5484476080727843
6.209999999999999E-5      1.5409218055092315
6.22E-5                   1.5333960029456775
6.23E-5                   1.5258702003821234
6.24E-5                   1.5183443978185693
6.25E-5                   1.5112475128319425
6.26E-5                   1.5042174298614175
6.269999999999999E-5      1.4971873468908932
6.28E-5                   1.490157263920368
6.29E-5                   1.483127180949843
6.3E-5                    1.476097097979318
6.31E-5                   1.4690670150087932
6.319999999999999E-5      1.4620369320382691
6.33E-5                   1.4550068490677437
6.34E-5                   1.4479767660972187
6.35E-5                   1.4409466831266935
6.36E-5                   1.4339166001561685
6.37E-5                   1.4268865171856435
6.379999999999999E-5      1.4198564342151194
6.39E-5                   1.413085395744551
6.4E-5                    1.4064821726388417
6.41E-5                   1.399878949533132
6.42E-5                   1.393275726427423
6.429999999999999E-5      1.3866725033217144
6.44E-5                   1.380069280216005
6.45E-5                   1.373466057110296
6.46E-5                   1.3668628340045863
6.47E-5                   1.360259610898877
6.48E-5                   1.3536563877931678
6.489999999999999E-5      1.3470531646874593
6.5E-5                    1.34044994158175
6.51E-5                   1.3338467184760405
6.52E-5                   1.3272434953703311
6.53E-5                   1.3208283176450004
6.539999999999999E-5      1.314764711802577
6.549999999999999E-5      1.3087011059601528
6.56E-5                   1.3026375001177282
6.57E-5                   1.2965738942753038
6.58E-5                   1.2905102884328796
6.59E-5                   1.2844466825904552
6.599999999999999E-5      1.278383076748032
6.61E-5                   1.2723194709056074
6.62E-5                   1.266255865063183
6.63E-5                   1.2601922592207588
6.64E-5                   1.2541286533783345
6.65E-5                   1.24806504753591
6.659999999999999E-5      1.2420014416934866
6.67E-5                   1.2359551712775732
6.68E-5                   1.2300839726285233