% Model:              20230225_JW_4_10.mph
% Version:            COMSOL 5.6.0.401
% Date:               Feb 25 2023, 20:25
% Dimension:          1
% Nodes:              1501
% Expressions:        1
% Description:        点图
% X                       Height
0                         14.84853724084395
1.0E-7                    14.85541833640783
2.0E-7                    14.874860948061887
3.0E-7                    14.887386758987754
4.0E-7                    14.87696035777649
5.0E-7                    14.867793138231296
6.0E-7                    14.85839148242636
7.0E-7                    14.844378567600014
8.0E-7                    14.827154571602783
9.0E-7                    14.803256064269245
1.0E-6                    14.777080014171817
1.1E-6                    14.745733671548662
1.2E-6                    14.714381954467063
1.2999999999999998E-6     14.67729472800807
1.4E-6                    14.640437846230153
1.5E-6                    14.600076246377208
1.6E-6                    14.557928588634999
1.6999999999999998E-6     14.513987410844642
1.8E-6                    14.468854268268913
1.9E-6                    14.422021960979642
2.0E-6                    14.374403182313744
2.1E-6                    14.325359161002902
2.2E-6                    14.275810925640041
2.3E-6                    14.225062553138734
2.4E-6                    14.173939209403681
2.4999999999999998E-6     14.121966921931081
2.5999999999999997E-6     14.069679146695874
2.7E-6                    14.016855071180059
2.8E-6                    13.963777203846487
2.8999999999999998E-6     13.910268014760598
3.0E-6                    13.856498060922664
3.1E-6                    13.802583284947785
3.2E-6                    13.748391081579417
3.2999999999999997E-6     13.694117655245607
3.3999999999999996E-6     13.639776509653014
3.5E-6                    13.585261219694765
3.6E-6                    13.530738682282871
3.6999999999999997E-6     13.476215669835588
3.8E-6                    13.42169996670208
3.9E-6                    13.367186783982492
4.0E-6                    13.312674429614813
4.1E-6                    13.25825339247358
4.2E-6                    13.203888633626812
4.2999999999999995E-6     13.149524547725916
4.4E-6                    13.095247124730008
4.5E-6                    13.041075766919686
4.6E-6                    12.98690506925958
4.7E-6                    12.932835603592833
4.8E-6                    12.87902655444768
4.9E-6                    12.82521806226335
4.9999999999999996E-6     12.771451094770459
5.0999999999999995E-6     12.71801995219463
5.199999999999999E-6      12.664589402109522
5.3E-6                    12.611159475880838
5.4E-6                    12.558365018669889
5.5E-6                    12.505612521144249
5.6E-6                    12.452860508461592
5.7E-6                    12.400109010715527
5.7999999999999995E-6     12.347358058545364
5.899999999999999E-6      12.29460768312964
6.0E-6                    12.242389612374508
6.1E-6                    12.190528972596113
6.2E-6                    12.138668740862924
6.3E-6                    12.086808943755269
6.4E-6                    12.034949608318787
6.5E-6                    11.983090762059028
6.5999999999999995E-6     11.931507732393527
6.699999999999999E-6      11.88071714869111
6.799999999999999E-6      11.829926957887267
6.9E-6                    11.779137184935967
7.0E-6                    11.728347855193697
7.1E-6                    11.67755899441467
7.2E-6                    11.626770628746
7.2999999999999996E-6     11.576739044215287
7.3999999999999995E-6     11.526775687391256
7.499999999999999E-6      11.476812645300305
7.6E-6                    11.426849940961699
7.699999999999999E-6      11.376887597725823
7.8E-6                    11.32692563927018
7.899999999999999E-6      11.277633928079
8.0E-6                    11.228833161986271
8.1E-6                    11.180032748868916
8.2E-6                    11.131232709817152
8.3E-6                    11.082433066202137
8.4E-6                    11.0336338396725
8.5E-6                    10.985770161035406
8.599999999999999E-6      10.938045458187217
8.7E-6                    10.890321147390004
8.8E-6                    10.842597249656835
8.9E-6                    10.794873786264427
9.0E-6                    10.747365978493177
9.1E-6                    10.699935905475273
9.2E-6                    10.652506052824734
9.299999999999999E-6      10.605076440048133
9.4E-6                    10.557783923027117
9.499999999999999E-6      10.511564581694616
9.6E-6                    10.465345555534988
9.7E-6                    10.41912686163749
9.8E-6                    10.372908517275674
9.9E-6                    10.32693985732195
9.999999999999999E-6      10.281229932641661
1.01E-5                   10.235520262449562
1.0199999999999999E-5     10.189810864137245
1.03E-5                   10.144101755284673
1.0399999999999999E-5     10.099127805399537
1.05E-5                   10.054264950341906
1.06E-5                   10.009402302767455
1.07E-5                   9.964539878173543
1.08E-5                   9.919849384041141
1.0899999999999999E-5     9.875683229758641
1.1E-5                    9.83151734836936
1.1099999999999999E-5     9.787351754986904
1.12E-5                   9.743186464870341
1.13E-5                   9.699696291199627
1.14E-5                   9.656611777178682
1.15E-5                   9.613527408941168
1.1599999999999999E-5     9.57044319986628
1.17E-5                   9.527359323065374
1.1799999999999999E-5     9.484338617178167
1.19E-5                   9.441318210645818
1.2E-5                    9.398298117705327
1.21E-5                   9.35527835272577
1.22E-5                   9.312988372626645
1.2299999999999999E-5     9.271886552056909
1.24E-5                   9.230784728691132
1.2499999999999999E-5     9.189682913001334
1.26E-5                   9.148581115531176
1.2699999999999999E-5     9.10674261732329
1.28E-5                   9.064669757014896
1.29E-5                   9.02259743673991
1.3E-5                    8.98052567081006
1.31E-5                   8.93867199450571
1.3199999999999999E-5     8.898198185959485
1.33E-5                   8.857724083506959
1.3399999999999999E-5     8.817249696049084
1.35E-5                   8.776775032528722
1.3599999999999999E-5     8.739353750093061
1.37E-5                   8.702007425688649
1.38E-5                   8.664661867047736
1.3899999999999999E-5     8.625981541644755
1.4E-5                    8.584922755066067
1.4099999999999999E-5     8.543863737592046
1.42E-5                   8.503758051372335
1.4299999999999999E-5     8.465776647942468
1.44E-5                   8.4277953495677
1.45E-5                   8.390067648302411
1.4599999999999999E-5     8.352465929741426
1.47E-5                   8.314441957070256
1.4799999999999999E-5     8.2754383647619
1.49E-5                   8.236804241369073
1.4999999999999999E-5     8.199964381559488
1.51E-5                   8.162866726773
1.52E-5                   8.125008050800837
1.53E-5                   8.087741339039052
1.5399999999999998E-5     8.051005019627816
1.55E-5                   8.014212169967536
1.56E-5                   7.977394910969596
1.57E-5                   7.94044875956826
1.5799999999999998E-5     7.903862971056994
1.59E-5                   7.86794641194972
1.6E-5                    7.83180574490401
1.61E-5                   7.7955300442582125
1.62E-5                   7.759721243639605
1.63E-5                   7.7240077526796505
1.64E-5                   7.688497381592164
1.6499999999999998E-5     7.653065084215833
1.66E-5                   7.617729380553966
1.67E-5                   7.5826385028162315
1.68E-5                   7.547642393116916
1.69E-5                   7.51285364920696
1.7E-5                    7.478135494320507
1.71E-5                   7.443605855781319
1.7199999999999998E-5     7.409226123316056
1.73E-5                   7.374972196924281
1.74E-5                   7.3409007069870045
1.75E-5                   7.306894620366229
1.76E-5                   7.27313217446808
1.77E-5                   7.239461719708493
1.78E-5                   7.205950333299973
1.7899999999999998E-5     7.172671602040601
1.8E-5                    7.139523454845813
1.81E-5                   7.106375390967195
1.82E-5                   7.073323775217504
1.8299999999999998E-5     7.040685864761151
1.84E-5                   7.008048040715849
1.85E-5                   6.9754103085336
1.8599999999999998E-5     6.943112432486481
1.87E-5                   6.91093565182307
1.88E-5                   6.87875894382144
1.89E-5                   6.846726248967888
1.8999999999999998E-5     6.815053395477074
1.91E-5                   6.783380623897852
1.92E-5                   6.751707939210273
1.9299999999999998E-5     6.720419208117496
1.94E-5                   6.689206852950051
1.95E-5                   6.657994560605688
1.96E-5                   6.626963705879018
1.9699999999999998E-5     6.596225641283804
1.98E-5                   6.565487655075652
1.99E-5                   6.534749751804198
1.9999999999999998E-5     6.5044449050477375
2.01E-5                   6.474172212357007
2.02E-5                   6.443899573576978
2.03E-5                   6.413848078319628
2.0399999999999998E-5     6.384036758670311
2.05E-5                   6.354225512999986
2.06E-5                   6.3244263208272615
2.07E-5                   6.295046263644465
2.0799999999999997E-5     6.265666251784281
2.09E-5                   6.236286289112838
2.1E-5                    6.207199369670393
2.1099999999999998E-5     6.17832801743036
2.12E-5                   6.149456728270048
2.13E-5                   6.120623891279829
2.14E-5                   6.092060816487677
2.1499999999999997E-5     6.063497794157252
2.16E-5                   6.034934827910904
2.17E-5                   6.006828964113082
2.1799999999999998E-5     5.978945211647657
2.19E-5                   5.951061495691088
2.2E-5                    5.923185168809663
2.21E-5                   5.895334752748314
2.2199999999999998E-5     5.867484419866614
2.23E-5                   5.839634173728
2.24E-5                   5.812528085676419
2.2499999999999998E-5     5.785644491619617
2.26E-5                   5.75876088477443
2.27E-5                   5.73181858207729
2.28E-5                   5.704750633407012
2.2899999999999998E-5     5.677682831259268
2.3E-5                    5.650615179118376
2.31E-5                   5.624155355704673
2.3199999999999998E-5     5.597789010117671
2.33E-5                   5.571422600704046
2.34E-5                   5.545627939781789
2.35E-5                   5.520639362066813
2.3599999999999998E-5     5.495650964192003
2.37E-5                   5.470079041025024
2.38E-5                   5.443199306393276
2.3899999999999998E-5     5.416319535422582
2.4E-5                    5.3904353977484645
2.41E-5                   5.365495792788355
2.42E-5                   5.340556202028113
2.4299999999999998E-5     5.315844946167305
2.44E-5                   5.291134431571356
2.45E-5                   5.265896926294946
2.4599999999999998E-5     5.2404674269534794
2.4699999999999997E-5     5.215822319648498
2.48E-5                   5.191521216773109
2.49E-5                   5.166976125608719
2.4999999999999998E-5     5.142303838807621
2.51E-5                   5.118057983349019
2.52E-5                   5.094074082581099
2.53E-5                   5.07010397492764
2.5399999999999997E-5     5.046143813513476
2.55E-5                   5.022273556325056
2.56E-5                   4.9984787023341495
2.5699999999999998E-5     4.974904936612061
2.58E-5                   4.951547128015798
2.59E-5                   4.9281526196367045
2.6E-5                    4.90471635678132
2.6099999999999997E-5     4.88143496097401
2.62E-5                   4.858358698173517
2.63E-5                   4.835380380492331
2.6399999999999998E-5     4.812553714769553
2.65E-5                   4.78981737589752
2.66E-5                   4.767245481501593
2.67E-5                   4.744736378448668
2.6799999999999998E-5     4.722362766829831
2.69E-5                   4.700028664434612
2.7E-5                    4.6777966963675475
2.7099999999999998E-5     4.6556061514950535
2.7199999999999997E-5     4.6335460652359926
2.73E-5                   4.611531283653355
2.74E-5                   4.589694184505093
2.7499999999999998E-5     4.567887908431732
2.76E-5                   4.546237232889619
2.77E-5                   4.524613683817167
2.7799999999999998E-5     4.503175835875317
2.7899999999999997E-5     4.481755631766497
2.8E-5                    4.460514590771072
2.81E-5                   4.439283913343006
2.8199999999999998E-5     4.418243052725437
2.83E-5                   4.397206494429844
2.84E-5                   4.376475008062094
2.8499999999999998E-5     4.355743539410849
2.8599999999999997E-5     4.335012089782007
2.87E-5                   4.314280660483446
2.88E-5                   4.293930149342614
2.8899999999999998E-5     4.273604775764444
2.9E-5                    4.253279420951773
2.91E-5                   4.232954086145749
2.9199999999999998E-5     4.212963969354577
2.9299999999999997E-5     4.193027339214537
2.94E-5                   4.17309072600226
2.95E-5                   4.153154130882675
2.9599999999999998E-5     4.133522425165628
2.97E-5                   4.113973385040077
2.98E-5                   4.094424361427921
2.99E-5                   4.074875355430107
2.9999999999999997E-5     4.055601848101832
3.01E-5                   4.036440320853007
3.02E-5                   4.017278808770675
3.0299999999999998E-5     3.9981173128900953
3.04E-5                   3.979183235518116
3.05E-5                   3.9603797071277262
3.06E-5                   3.9415761926649546
3.07E-5                   3.9227726931026554
3.0799999999999996E-5     3.9041679295063356
3.09E-5                   3.8857195659072175
3.1E-5                    3.8672712161769707
3.11E-5                   3.848822881238852
3.12E-5                   3.8305423635306344
3.13E-5                   3.812440823911318
3.14E-5                   3.7943392962435216
3.15E-5                   3.776237781393702
3.1599999999999996E-5     3.758349780362436
3.17E-5                   3.7407713215476446
3.18E-5                   3.723192873696454
3.1899999999999996E-5     3.7056144376024336
3.2E-5                    3.6880360140600006
3.21E-5                   3.6704576038644263
3.22E-5                   3.652879207811814
3.23E-5                   3.6353008266990843
3.24E-5                   3.6178925065209837
3.25E-5                   3.60097635102153
3.26E-5                   3.5840602032020756
3.2699999999999995E-5     3.5671440637656833
3.28E-5                   3.550227933416127
3.29E-5                   3.5333118128578938
3.2999999999999996E-5     3.5163957027961708
3.31E-5                   3.4994796039368317
3.32E-5                   3.482630454997079
3.3299999999999996E-5     3.4663495889012808
3.34E-5                   3.4500687303639674
3.35E-5                   3.4337878800129342
3.36E-5                   3.417507038476569
3.37E-5                   3.4012262063838343
3.38E-5                   3.384945384364275
3.39E-5                   3.3686645730479925
3.4E-5                    3.352383773065647
3.4099999999999995E-5     3.336683855053429
3.42E-5                   3.3210119713430473
3.43E-5                   3.305340094599258
3.4399999999999996E-5     3.2896682253791067
3.45E-5                   3.273996364240114
3.46E-5                   3.258324511740272
3.4699999999999996E-5     3.2426526684380326
3.48E-5                   3.2269808348923052
3.49E-5                   3.211791459396514
3.5E-5                    3.196720778082125
3.51E-5                   3.1816501028353645
3.52E-5                   3.166579434153284
3.53E-5                   3.1515087725333304
3.54E-5                   3.1364381184733343
3.5499999999999996E-5     3.1213674724715244
3.56E-5                   3.1062968350264937
3.57E-5                   3.0915857010225665
3.5799999999999996E-5     3.077067169370858
3.59E-5                   3.062548643368847
3.6E-5                    3.0480301234593106
3.6099999999999997E-5     3.0335116100853465
3.62E-5                   3.0189931036903683
3.63E-5                   3.0044746047181077
3.64E-5                   2.9899561136126005
3.65E-5                   2.9757226196225703
3.6599999999999995E-5     2.9617744144986755
3.67E-5                   2.9478262137474585
3.68E-5                   2.933878017760444
3.6899999999999996E-5     2.9199298269294247
3.7E-5                    2.9059816416464574
3.71E-5                   2.8920334623038606
3.7199999999999996E-5     2.878085289294211
3.73E-5                   2.864312426857521
3.74E-5                   2.8508675324175323
3.75E-5                   2.8374226428010836
3.76E-5                   2.823977758361315
3.77E-5                   2.8105328794515905
3.78E-5                   2.79708800642549
3.79E-5                   2.783643139636803
3.7999999999999995E-5     2.7701982794395357
3.81E-5                   2.756855924246456
3.82E-5                   2.7439315746042157
3.8299999999999996E-5     2.7310072277908515
3.84E-5                   2.7180828841147853
3.85E-5                   2.705158543884621
3.8599999999999996E-5     2.69223420740914
3.87E-5                   2.679309874997299
3.88E-5                   2.66638554695823
3.89E-5                   2.6534848363841843
3.9E-5                    2.6410793293046777
3.9099999999999995E-5     2.628673826578669
3.92E-5                   2.6162683284849084
3.93E-5                   2.603862835302299
3.9399999999999995E-5     2.5914573473098903
3.95E-5                   2.5790518647868814
3.96E-5                   2.566646388012612
3.9699999999999996E-5     2.554240917266568
3.98E-5                   2.5421339799834595
3.99E-5                   2.530062401700415
3.9999999999999996E-5     2.517990825331575
4.01E-5                   2.5059192511283084
4.02E-5                   2.493847679342106
4.03E-5                   2.4817761102245806
4.04E-5                   2.4697045440274543
4.0499999999999995E-5     2.457632981002567
4.06E-5                   2.446166896228533
4.07E-5                   2.4349105810751444
4.0799999999999996E-5     2.423654269651769
4.09E-5                   2.4123979621602483
4.1E-5                    2.4011416588025307
4.1099999999999996E-5     2.389885359780662
4.12E-5                   2.378629065296787
4.13E-5                   2.3673727755531493
4.14E-5                   2.3560753473945475
4.15E-5                   2.34474948523273
4.1599999999999995E-5     2.3334236290330357
4.17E-5                   2.322097779047515
4.18E-5                   2.310771935528316
4.1899999999999995E-5     2.299446098727671
4.2E-5                    2.288234162160073
4.21E-5                   2.277128531452043
4.2199999999999996E-5     2.266022897299135
4.23E-5                   2.254917259864462
4.24E-5                   2.244050173987043
4.2499999999999996E-5     2.2336193031380485
4.26E-5                   2.223188440437614
4.27E-5                   2.2127575860296407
4.28E-5                   2.202124552098916
4.29E-5                   2.1913966125768978
4.2999999999999995E-5     2.1806686704872376
4.31E-5                   2.1701766365501842
4.32E-5                   2.1597878345672523
4.3299999999999995E-5     2.1494470622109016
4.34E-5                   2.139314821830659
4.35E-5                   2.129182587480021
4.3599999999999996E-5     2.118969708206521
4.37E-5                   2.1087566964049405
4.38E-5                   2.098688533946061
4.3899999999999996E-5     2.088626209928858
4.4E-5                    2.0785840578005885
4.41E-5                   2.068608278304842
4.42E-5                   2.0587163295479516
4.43E-5                   2.048856683665046
4.4399999999999995E-5     2.0390137079116695
4.45E-5                   2.029213469498844
4.46E-5                   2.0194314280279038
4.4699999999999996E-5     2.0097657869331096
4.48E-5                   2.000119254677053
4.49E-5                   1.9905147112819688
4.4999999999999996E-5     1.9809554716070796
4.51E-5                   1.9714363433310806
4.52E-5                   1.9619802648444509
4.5299999999999997E-5     1.9525454135377467
4.54E-5                   1.9431821916535557
4.5499999999999995E-5     1.933836810219282
4.56E-5                   1.924559512321251
4.57E-5                   1.9153142493966426
4.5799999999999995E-5     1.9061167930032925
4.59E-5                   1.8969660528612131
4.6E-5                    1.887844077297344
4.6099999999999996E-5     1.878788384299492
4.62E-5                   1.86974979855299
4.63E-5                   1.8607836874824955
4.6399999999999996E-5     1.8518528427295473
4.65E-5                   1.8430163658912775
4.66E-5                   1.834179890213163
4.67E-5                   1.8253434157942887
4.68E-5                   1.8166237110787482
4.6899999999999995E-5     1.8079522971285817
4.7E-5                    1.7992808847106854
4.71E-5                   1.7906302411471005
4.7199999999999995E-5     1.782104215401335
4.73E-5                   1.7735781908419175
4.74E-5                   1.7650521675576767
4.7499999999999996E-5     1.7566091692347394
4.76E-5                   1.7482267261624247
4.77E-5                   1.739844284348571
4.7799999999999996E-5     1.7314637838074618
4.79E-5                   1.7232234275645046
4.8E-5                    1.714983072471778
4.81E-5                   1.706742718609391
4.82E-5                   1.698564851967874
4.8299999999999995E-5     1.6904636493429548
4.84E-5                   1.6823624477785957
4.85E-5                   1.6742612473509786
4.8599999999999995E-5     1.6662810697320105
4.87E-5                   1.6583167022338716
4.88E-5                   1.6503523358753196
4.8899999999999996E-5     1.6424562166139884
4.9E-5                    1.6347052093006929
4.91E-5                   1.6269542028725033
4.9199999999999997E-5     1.6192031973960628
4.93E-5                   1.6114521929380259
4.9399999999999995E-5     1.6037011895650624
4.95E-5                   1.5959501873438524
4.96E-5                   1.5882498939230265
4.9699999999999995E-5     1.5807648289404594
4.98E-5                   1.5732797646867884
4.99E-5                   1.565794701222013
4.9999999999999996E-5     1.5583096386061421
5.01E-5                   1.5508245768991937
5.02E-5                   1.5433395161612011
5.0299999999999996E-5     1.5358697076371812
5.04E-5                   1.5286326930182312
5.05E-5                   1.5213956790437584
5.06E-5                   1.5141586657679615
5.07E-5                   1.5069216532450458
5.0799999999999995E-5     1.49968464152923
5.09E-5                   1.4924476306747392
5.1E-5                    1.4852106207358091
5.1099999999999995E-5     1.4783076199285405
5.12E-5                   1.4714288759847594
5.13E-5                   1.4645501326203179
5.1399999999999996E-5     1.4576713898817557
5.15E-5                   1.4507926478156195
5.16E-5                   1.4439139064684638
5.1699999999999996E-5     1.437035165886852
5.18E-5                   1.4301564261173525
5.1899999999999994E-5     1.4232776872065416
5.2E-5                    1.416398949201003
5.21E-5                   1.4095202121473274
5.2199999999999995E-5     1.402641476092112
5.23E-5                   1.39576274108196
5.24E-5                   1.3888840071634827
5.2499999999999995E-5     1.382310819628613
5.26E-5                   1.3758854766937678
5.27E-5                   1.369460133982836
5.2799999999999996E-5     1.3630347915336667
5.29E-5                   1.3566094493841117
5.3E-5                    1.3501841075720302
5.3099999999999996E-5     1.3437587661352883
5.32E-5                   1.3373334251117546
5.3299999999999995E-5     1.3309080845393058
5.34E-5                   1.324482744455822
5.35E-5                   1.318057404899189
5.3599999999999995E-5     1.3116320659072993
5.37E-5                   1.305206727518048
5.38E-5                   1.2987813897693365
5.3899999999999996E-5     1.292532273024472
5.4E-5                    1.2865310202028906
5.41E-5                   1.2805297676754006
5.4199999999999996E-5     1.2745285154729098
5.43E-5                   1.2685272636263285
5.4399999999999994E-5     1.2625260121665733
5.4499999999999997E-5     1.2565247611245627
5.46E-5                   1.2505235105312207
5.4699999999999995E-5     1.2445222604174737
5.48E-5                   1.2385210108142515
5.49E-5                   1.2325197617524892
5.4999999999999995E-5     1.2265185132631242
5.51E-5                   1.2205172653770975
5.52E-5                   1.2145160181253531
5.5299999999999996E-5     1.2085768535996457
5.54E-5                   1.2029706565498397
5.55E-5                   1.1973644596818724
5.5599999999999996E-5     1.191758263020806
5.57E-5                   1.1861520665917034
5.5799999999999994E-5     1.1805458704196319
5.59E-5                   1.17493967452966
5.6E-5                    1.1693334789468606
5.6099999999999995E-5     1.163727283696308
5.62E-5                   1.1581210888030797
5.63E-5                   1.1525148942922558
5.6399999999999995E-5     1.1469087001889189
5.65E-5                   1.1413025065181537
5.66E-5                   1.1356963133050484
5.6699999999999996E-5     1.1300901205746925
5.68E-5                   1.1248190898094204
5.69E-5                   1.119585809603489
5.6999999999999996E-5     1.1143525295881702
5.71E-5                   1.109119249784014
5.7199999999999994E-5     1.103885970211572
5.73E-5                   1.0986526908913952
5.74E-5                   1.093419411844039
5.7499999999999995E-5     1.0881861330900615
5.76E-5                   1.0829528546500196
5.77E-5                   1.0777195765444743
5.7799999999999995E-5     1.072486298793988
5.79E-5                   1.067253021419125
5.8E-5                    1.0620197444404509
5.8099999999999996E-5     1.0567864678785335
5.82E-5                   1.0517712432686397
5.8299999999999994E-5     1.0468784668877484
5.8399999999999997E-5     1.0419856906453808
5.85E-5                   1.0370929145581793
5.8599999999999995E-5     1.0322001386427886
5.87E-5                   1.0273073629158533
5.88E-5                   1.0224145873940207
5.8899999999999995E-5     1.0175218120939382
5.9E-5                    1.012629037032255
5.91E-5                   1.007736262225623
5.9199999999999996E-5     1.0028434876906926
5.93E-5                   0.9979507134441181
5.94E-5                   0.9930579395025534
5.9499999999999996E-5     0.9881651658826546
5.96E-5                   0.9833979717824557
5.9699999999999994E-5     0.9788339352705218
5.98E-5                   0.974269898873093
5.99E-5                   0.9697058626037807
5.9999999999999995E-5     0.9651418264761973
6.01E-5                   0.9605777905039554
6.02E-5                   0.9560137547006698
6.0299999999999995E-5     0.9514497190799562
6.04E-5                   0.9468856836554298
6.05E-5                   0.9423216484407082
6.0599999999999996E-5     0.9377576134494099
6.07E-5                   0.9331935786951531
6.08E-5                   0.9286295441915581
6.0899999999999996E-5     0.9240655099522456
6.1E-5                    0.9195380197904547
6.11E-5                   0.9152695906333471
6.12E-5                   0.9110011615776133
6.13E-5                   0.9067327326343395
6.14E-5                   0.9024643038146114
6.149999999999999E-5      0.898195875129517
6.159999999999999E-5      0.8939274465901427
6.17E-5                   0.8896590182075775
6.18E-5                   0.8853905899929105
6.19E-5                   0.8811221619572316
6.2E-5                    0.8768537341116307
6.209999999999999E-5      0.8725853064671999
6.22E-5                   0.8683168790350293
6.23E-5                   0.8640484518262121
6.24E-5                   0.8597800248518409
6.25E-5                   0.8557571622297864
6.26E-5                   0.8517725451985249
6.269999999999999E-5      0.8477879282296032
6.28E-5                   0.84380331133202
6.29E-5                   0.8398186945147753
6.3E-5                    0.8358340777868699
6.31E-5                   0.8318494611573047
6.319999999999999E-5      0.8278648446350813
6.33E-5                   0.8238802282292009
6.34E-5                   0.819895611948666
6.35E-5                   0.8159109958024804
6.36E-5                   0.8119263797996464
6.37E-5                   0.8079417639491684
6.379999999999999E-5      0.8039571482600509
6.39E-5                   0.8001361603622644
6.4E-5                    0.7964211745473846
6.41E-5                   0.7927061888290509
6.42E-5                   0.7889912032146388
6.429999999999999E-5      0.785276217711526
6.44E-5                   0.7815612323270882
6.45E-5                   0.7778462470687031
6.46E-5                   0.7741312619437485
6.47E-5                   0.7704162769596025
6.48E-5                   0.7667012921236434
6.489999999999999E-5      0.7629863074432498
6.5E-5                    0.7592713229258005
6.51E-5                   0.7555563385786748
6.52E-5                   0.7518413544092519
6.53E-5                   0.7482033948156104
6.539999999999999E-5      0.7447094410091875
6.549999999999999E-5      0.7412154872183429
6.56E-5                   0.7377215334490715
6.57E-5                   0.7342275797073693
6.58E-5                   0.7307336259992313
6.59E-5                   0.7272396723306535
6.599999999999999E-5      0.7237457187076323
6.61E-5                   0.7202517651361632
6.62E-5                   0.716757811622243
6.63E-5                   0.7132638581718685
6.64E-5                   0.709769904791037
6.65E-5                   0.7062759514857455
6.659999999999999E-5      0.7027819982619921
6.67E-5                   0.6993136281464208